#Initial configuration
640 atoms
2 atom types
620 bonds
1 bond types
0.0 10.000000 xlo xhi
0.0 10.000000 ylo yhi
0.0 10.000000 zlo zhi
0 0 0 xy xz yz

Atoms # bond

1 1 1 9.644057 6.792957 6.779948
2 1 1 8.685775 6.560890 6.946803
3 1 1 7.739765 6.263703 6.817403
4 1 1 7.367759 5.495004 6.297100
5 1 1 7.951860 4.725368 6.554948
6 1 1 7.121904 5.248458 6.748726
7 1 1 6.955972 4.853348 5.845202
8 1 1 6.207061 4.242887 6.103019
9 1 1 6.143572 4.925241 6.831278
10 1 1 5.521100 4.785728 6.061171
11 1 1 5.347693 3.809757 5.929224
12 1 1 4.564346 3.950420 6.534683
13 1 1 4.981160 4.503757 5.813515
14 1 1 4.769058 5.449841 5.568693
15 1 1 4.757926 5.897915 4.674765
16 1 1 5.325013 5.151574 4.326358
17 1 1 5.265276 5.280845 3.336549
18 1 1 4.863554 5.292661 4.252235
19 1 1 4.041304 5.842496 4.105320
20 1 1 4.762341 5.304354 4.541792
21 1 1 4.710964 6.121144 5.116434
22 1 1 4.705897 6.827779 5.823994
23 1 1 3.734982 6.599136 5.895029
24 1 1 4.424111 7.019124 6.485547
25 1 1 4.290986 7.680767 7.223454
26 1 1 4.690346 8.560243 7.482364
27 1 1 3.928761 8.343604 8.093146
28 1 1 4.066568 8.396896 9.082171
29 1 1 4.260669 7.753904 8.341302
30 1 1 4.811416 8.407177 8.860833
31 1 1 4.884466 8.768564 9.790383
32 1 1 5.378859 8.752361 8.921296
33 2 1 0.535296 5.709236 2.089516
34 2 1 0.511135 5.431575 1.129140
35 2 1 9.627357 5.037615 1.381595
36 2 1 9.111764 5.319425 2.190759
37 2 1 0.010112 5.756093 2.238629
38 2 1 9.179903 6.312144 2.199131
39 2 1 8.356963 5.756732 2.318660
40 2 1 7.498486 5.243956 2.327489
41 2 1 6.534818 5.499541 2.405089
42 2 1 5.746969 5.268961 1.834015
43 2 1 6.020416 5.236333 2.795348
44 2 1 5.482465 5.319919 1.956526
45 2 1 5.656950 6.079383 1.329813
46 2 1 6.648362 5.980089 1.244717
47 2 1 6.195320 6.629411 1.855563
48 2 1 6.057447 7.100245 0.984181
49 2 1 5.723383 8.024437 1.169304
50 2 1 5.548007 8.320439 0.230354
51 2 1 5.061950 8.666311 9.427783
52 2 1 4.588512 9.536444 9.564622
53 2 1 5.302616 0.185368 9.827211
54 2 1 5.331899 9.335101 9.301676
55 2 1 4.923751 0.103966 9.793877
56 2 1 5.185337 9.370526 9.166470
57 2 1 5.782157 0.136959 8.929008
58 2 1 5.563687 0.964895 9.445527
59 2 1 5.743185 1.223083 8.496254
60 2 1 6.418596 0.523028 8.264428
61 2 1 7.407562 0.622208 8.154384
62 2 1 8.022514 9.834961 8.108838
63 2 1 7.429144 9.347113 8.749085
64 2 1 8.138699 8.669107 8.941022
65 3 1 2.912005 6.658568 2.665249
66 3 1 3.714660 7.237440 2.521541
67 3 1 4.384405 6.526763 2.306179
68 3 1 5.084731 5.998504 2.786267
69 3 1 5.163922 6.885009 3.242158
70 3 1 5.291068 7.563645 2.518772
71 3 1 4.331123 7.717127 2.284362
72 3 1 4.130893 8.694551 2.216899
73 3 1 3.813560 9.475925 1.679541
74 3 1 4.122255 8.669499 1.175175
75 3 1 3.580979 8.616413 2.014342
76 3 1 2.802218 8.787526 1.410809
77 3 1 1.863248 8.573686 1.680268
78 3 1 2.538334 8.432940 2.404457
79 3 1 1.863496 8.591296 1.683682
80 3 1 2.312296 7.891834 1.127507
81 3 1 2.604853 7.291655 1.871951
82 3 1 2.277164 7.886597 1.138013
83 3 1 2.754990 8.333342 1.894387
84 3 1 2.203554 8.601653 2.684277
85 3 1 2.960784 8.069851 2.305082
86 3 1 2.987811 8.873425 1.710491
87 3 1 2.106395 8.437557 1.892492
88 3 1 1.729459 7.511826 1.923168
89 3 1 2.317195 7.769381 2.690131
90 3 1 1.757421 7.537216 1.894674
91 3 1 2.027916 6.685916 2.344251
92 3 1 1.932220 6.846575 1.361891
93 3 1 1.178211 6.702524 2.002766
94 3 1 1.427892 7.071188 1.107363
95 3 1 2.048758 6.287304 1.114504
96 3 1 1.090798 6.331814 1.397933
97 4 1 0.011793 1.118700 2.490895
98 4 1 9.911755 2.084341 2.730749
99 4 1 9.925121 3.083881 2.757979
100 4 1 9.763491 3.664902 3.555657
101 4 1 8.984813 3.441066 4.141796
102 4 1 9.108959 3.786093 3.211449
103 4 1 0.015362 3.587197 2.838790
104 4 1 0.890760 3.194573 2.556789
105 4 1 0.944618 2.301417 3.003301
106 4 1 1.846781 2.437844 2.594045
107 4 1 1.659247 3.349921 2.958663
108 4 1 0.932721 3.928056 3.330039
109 4 1 0.272293 4.635046 3.077056
110 4 1 0.622740 4.383041 2.175015
111 4 1 0.542363 4.561033 1.194271
112 4 1 0.204110 3.638432 1.008820
113 4 1 0.826984 3.416496 1.759002
114 4 1 0.961256 2.521779 2.184974
115 4 1 0.874843 3.030554 3.041526
116 4 1 0.132099 3.662134 3.263874
117 4 1 0.647053 4.385424 3.723955
118 4 1 0.345191 4.278681 4.671312
119 4 1 0.782483 5.067746 4.239858
120 4 1 1.642643 5.273212 3.773051
121 4 1 1.252847 5.471934 2.873846
122 4 1 0.566071 6.151478 3.131838
123 4 1 1.242575 6.849221 2.896261
124 4 1 0.666690 6.233292 3.433837
125 4 1 0.648162 6.804442 2.613201
126 4 1 1.235721 7.242283 1.932708
127 4 1 0.238898 7.295203 1.992238
128 4 1 0.613427 8.172212 2.293208
129 5 1 0.434904 0.335009 5.328799
130 5 1 0.706221 1.220090 5.706977
131 5 1 1.295824 2.005684 5.519334
132 5 1 2.136456 1.754363 5.999100
133 5 1 2.806966 1.501105 6.696436
134 5 1 1.865962 1.651279 6.999685
135 5 1 2.805127 1.540520 6.674567
136 5 1 2.681918 0.655069 7.122669
137 5 1 3.631923 0.472329 6.869497
138 5 1 4.194438 9.932221 7.495484
139 5 1 3.467196 0.231119 8.113368
140 5 1 4.027644 9.801727 7.405186
141 5 1 3.755564 0.111555 8.316218
142 5 1 3.420559 1.005660 8.018984
143 5 1 3.844312 0.102534 8.088253
144 5 1 3.645149 0.154066 9.066864
145 5 1 4.379152 0.683737 8.641789
146 5 1 5.236613 0.238999 8.900573
147 5 1 5.740603 0.467446 8.067623
148 5 1 6.103692 0.742134 8.957968
149 5 1 5.278498 0.600728 8.411104
150 5 1 4.428118 1.025123 8.722141
151 5 1 4.422585 0.423046 9.520560
152 5 1 3.555847 0.773261 9.165434
153 5 1 4.371415 0.256063 8.905906
154 5 1 5.026796 0.355829 8.157225
155 5 1 4.427841 9.639241 8.514653
156 5 1 3.927654 9.031163 7.898168
157 5 1 3.637095 8.106656 7.651466
158 5 1 4.055906 7.460694 7.013241
159 5 1 4.860664 7.634401 7.580859
160 5 1 5.095439 8.213685 8.361443
161 6 1 4.911895 7.065262 2.679642
162 6 1 4.222288 6.574328 3.212019
163 6 1 3.621278 7.373350 3.193306
164 6 1 3.433318 8.217361 2.690994
165 6 1 4.014381 7.936203 3.454745
166 6 1 4.750984 7.585214 2.876625
167 6 1 4.420133 7.042923 2.104318
168 6 1 4.037150 7.698815 1.453833
169 6 1 4.682032 7.628522 0.692790
170 6 1 4.955329 8.242825 9.952560
171 6 1 5.514483 9.057013 9.796211
172 6 1 5.805152 9.422590 8.911980
173 6 1 5.616696 8.865131 8.103448
174 6 1 4.690462 8.804748 7.731368
175 6 1 5.162482 7.943708 7.920595
176 6 1 4.417507 7.898252 8.586137
177 6 1 4.088935 7.093838 8.091203
178 6 1 4.417477 6.486492 7.367884
179 6 1 4.797887 6.611095 8.284269
180 6 1 4.060755 7.278280 8.177030
181 6 1 3.278613 6.816740 8.595640
182 6 1 2.862859 6.019265 8.158396
183 6 1 2.369381 5.149581 8.147004
184 6 1 2.302537 5.845253 7.431761
185 6 1 2.405070 5.023497 6.871223
186 6 1 2.413770 4.109016 6.466687
187 6 1 2.672342 5.023172 6.154504
188 6 1 2.581780 5.056761 7.149829
189 6 1 2.096264 5.900640 7.378177
190 6 1 2.838438 6.352925 7.872764
191 6 1 3.260381 7.150730 8.303428
192 6 1 3.583067 8.039849 7.978867
193 7 1 6.032774 6.702660 1.580536
194 7 1 6.537970 6.687499 2.443408
195 7 1 6.672823 5.904179 3.050223
196 7 1 5.702266 5.793280 3.264049
197 7 1 5.010053 5.087207 3.413384
198 7 1 4.855232 5.002222 4.397665
199 7 1 4.107769 4.372683 4.185582
200 7 1 4.382948 5.178108 4.710527
201 7 1 3.681881 4.973966 4.027276
202 7 1 4.657810 4.825018 4.186583
203 7 1 4.476996 4.641821 5.152888
204 7 1 4.340233 5.341224 5.854409
205 7 1 4.295443 5.273654 4.857701
206 7 1 4.305415 4.273987 4.833937
207 7 1 3.446087 4.362584 4.330245
208 7 1 2.590702 3.877432 4.148737
209 7 1 2.215069 4.721181 4.532128
210 7 1 2.868695 5.015031 3.834686
211 7 1 2.062741 5.206691 4.394780
212 7 1 1.185582 5.129759 4.868778
213 7 1 0.532534 5.585332 4.263813
214 7 1 9.756341 4.993749 4.045743
215 7 1 9.155805 5.744004 4.322279
216 7 1 8.938795 5.100170 3.588532
217 7 1 8.664781 4.517212 4.353435
218 7 1 8.339882 3.894812 3.641354
219 7 1 8.998593 3.505420 4.285150
220 7 1 8.974611 3.864974 5.217966
221 7 1 8.790739 4.783980 5.566704
222 7 1 8.618967 5.729661 5.842715
223 7 1 7.766978 5.282243 6.114619
224 7 1 7.173718 4.730420 5.528501
225 8 1 3.821433 6.614836 7.873537
226 8 1 3.494369 6.236766 8.739616
227 8 1 2.644018 6.107129 8.229618
228 8 1 2.241978 5.245036 8.538099
229 8 1 3.234295 5.345867 8.609793
230 8 1 2.833739 4.509479 8.235613
231 8 1 2.758501 5.420925 7.831129
232 8 1 2.368739 4.811965 8.521965
233 8 1 3.228406 4.667785 8.031879
234 8 1 3.709302 3.807728 8.202294
235 8 1 2.720394 3.706316 8.310813
236 8 1 2.431403 2.798044 8.613346
237 8 1 3.252761 2.230092 8.666285
238 8 1 2.828463 1.723277 7.915879
239 8 1 3.770763 1.726341 7.581125
240 8 1 3.376050 0.970762 8.103907
241 8 1 3.508520 0.028638 7.795924
242 8 1 3.394997 9.057450 8.005462
243 8 1 3.456157 8.140891 7.610268
244 8 1 2.617265 8.198991 8.151456
245 8 1 2.637856 8.037846 9.138172
246 8 1 1.723084 7.944508 9.531211
247 8 1 2.604620 7.764181 9.094890
248 8 1 3.538317 7.780712 8.737206
249 8 1 4.293010 7.509757 9.334719
250 8 1 4.511667 7.369648 8.369029
251 8 1 4.351930 7.107908 9.320857
252 8 1 5.102637 6.934744 9.958393
253 8 1 4.202696 7.296806 9.715460
254 8 1 3.530966 6.898501 9.090854
255 8 1 4.032846 6.734398 9.940081
256 8 1 3.235507 6.529244 0.507675
257 9 1 3.088522 5.679147 4.553171
258 9 1 3.213421 5.373798 5.497185
259 9 1 3.137552 5.347047 4.500426
260 9 1 3.511805 5.155727 5.407802
261 9 1 3.632606 4.209105 5.108949
262 9 1 2.967155 4.335654 5.844584
263 9 1 2.401841 4.583001 5.057667
264 9 1 1.769702 3.880275 5.384128
265 9 1 1.261768 3.515847 6.164637
266 9 1 1.258090 2.576461 5.821795
267 9 1 1.953767 2.729121 5.119848
268 9 1 2.218562 2.543997 4.173480
269 9 1 2.224435 3.414166 3.680762
270 9 1 1.787841 2.515182 3.645942
271 9 1 0.987747 2.583927 3.050021
272 9 1 1.337538 3.389143 2.571196
273 9 1 0.777389 4.215105 2.634592
274 9 1 1.428364 4.974204 2.634875
275 9 1 0.740429 5.589507 2.249976
276 9 1 1.165808 5.623708 1.345607
277 9 1 0.185371 5.815081 1.391644
278 9 1 1.013794 5.336397 1.682463
279 9 1 0.076005 5.221803 2.010212
280 9 1 0.132177 4.537484 2.737228
281 9 1 9.951223 5.463964 2.407241
282 9 1 0.540180 4.688817 2.178599
283 9 1 0.177740 5.134181 1.359887
284 9 1 1.012151 5.461023 0.916116
285 9 1 0.678256 4.754534 1.540126
286 9 1 0.056439 4.056904 1.184238
287 9 1 1.022920 3.934303 0.958668
288 9 1 0.931071 3.245557 0.239506
289 10 1 4.564600 5.511198 1.608520
290 10 1 4.451054 5.025071 2.475000
291 10 1 4.413059 5.050188 1.476038
292 10 1 4.229963 6.033282 1.476718
293 10 1 4.869057 5.518827 2.048464
294 10 1 4.706115 6.067102 2.868735
295 10 1 4.503308 6.717030 3.601171
296 10 1 3.588801 6.349664 3.431707
297 10 1 4.329536 5.734293 3.162208
298 10 1 4.034504 6.262657 3.958315
299 10 1 5.005634 6.033339 4.024029
300 10 1 5.293537 6.761717 3.402276
301 10 1 5.485147 5.897848 2.936426
302 10 1 5.985379 6.021745 2.079445
303 10 1 6.147675 5.629505 2.984878
304 10 1 6.657896 5.995997 3.762925
305 10 1 7.287640 6.693804 4.104229
306 10 1 7.264697 6.357147 5.045577
307 10 1 7.754744 5.661215 4.520664
308 10 1 6.896233 6.157826 4.392850
309 10 1 6.220819 6.844415 4.123756
310 10 1 5.997508 6.273029 3.334041
311 10 1 6.417103 7.133523 3.622989
312 10 1 6.036475 8.010321 3.329142
313 10 1 6.249109 7.920388 4.302126
314 10 1 6.847222 8.668403 4.014489
315 10 1 6.714322 8.950699 4.964566
316 10 1 7.034441 9.624789 5.630244
317 10 1 6.281191 8.967390 5.609247
318 10 1 5.954905 8.722800 4.696168
319 10 1 6.671794 9.376499 4.453788
320 10 1 6.535427 8.389852 4.364720
321 11 2 6.014967 3.941382 2.150470
322 11 2 5.537273 3.104664 1.882680
323 11 2 6.527272 3.117349 1.742175
324 11 2 7.184518 3.749648 1.332023
325 11 2 6.520256 3.065189 1.031570
326 11 2 6.192531 3.231485 1.961593
327 11 2 5.988294 3.995004 1.348954
328 11 2 5.662132 3.928719 0.405967
329 11 2 5.481316 3.442567 1.260930
330 11 2 5.443886 3.192566 0.293408
331 11 2 6.180047 3.368601 9.639896
332 11 2 6.045490 3.137281 0.603423
333 11 2 5.513391 3.570469 9.875948
334 11 2 6.135399 4.192892 0.351024
335 11 2 6.488859 5.018726 0.790415
336 11 2 6.780412 5.974534 0.828192
337 11 2 6.357681 6.767910 1.266202
338 11 2 7.126037 6.355013 0.777177
339 11 2 7.537967 6.745917 9.954068
340 11 2 6.997918 6.853487 0.788799
341 11 2 6.521645 7.608683 1.239180
342 11 2 7.139225 7.198902 1.910503
343 11 2 6.318458 7.697246 2.189780
344 11 2 7.162798 8.029527 2.610112
345 11 2 7.659721 7.717377 3.419823
346 11 2 7.457618 8.417493 4.104652
347 11 2 8.117440 8.401675 3.353398
348 11 2 8.516816 7.833003 2.634293
349 11 2 9.461903 7.602117 2.865598
350 11 2 9.046282 7.364024 1.987777
351 11 2 8.144760 7.795770 1.958561
352 11 2 8.516738 8.369497 1.228856
353 12 2 1.873874 5.333397 9.464915
354 12 2 1.878047 5.483302 8.476223
355 12 2 2.408416 6.318549 8.331062
356 12 2 2.211336 5.520853 8.901010
357 12 2 3.175272 5.575426 8.640530
358 12 2 3.396241 4.938616 7.901852
359 12 2 3.768630 5.768136 8.318052
360 12 2 3.654635 5.498408 7.361887
361 12 2 2.979853 6.001853 7.901528
362 12 2 2.742322 5.525770 7.054815
363 12 2 2.972502 4.562409 7.192480
364 12 2 2.762342 4.425305 6.224474
365 12 2 3.188084 4.230438 5.340862
366 12 2 2.997641 4.448414 4.383669
367 12 2 3.966919 4.205140 4.347364
368 12 2 4.375973 4.607019 3.528116
369 12 2 4.883103 4.297314 2.723814
370 12 2 4.484243 5.111420 2.301745
371 12 2 3.605047 4.952492 2.750917
372 12 2 3.830978 4.012563 3.006822
373 12 2 3.114949 3.357594 2.765330
374 12 2 2.133193 3.403411 2.949875
375 12 2 2.220733 4.226642 3.510791
376 12 2 2.829419 4.987482 3.285795
377 12 2 2.255420 4.770707 4.075436
378 12 2 2.017224 4.121380 4.797681
379 12 2 1.646238 4.302758 3.886928
380 12 2 0.800721 4.540406 3.408780
381 12 2 1.409587 4.001974 2.826223
382 12 2 1.943581 3.307634 2.343789
383 12 2 1.484988 3.700178 1.546543
384 12 2 2.310908 3.229402 1.236342
385 13 2 1.795942 6.224505 3.108770
386 13 2 1.285754 6.841000 2.509068
387 13 2 0.843156 6.330902 3.246569
388 13 2 0.462454 6.958374 3.925793
389 13 2 1.442023 7.039110 3.741602
390 13 2 2.063386 7.367657 4.452914
391 13 2 1.885089 8.258386 4.034809
392 13 2 2.539129 7.502067 4.020201
393 13 2 2.600239 6.573273 3.654676
394 13 2 2.662486 5.847477 2.969589
395 13 2 3.413209 5.211916 3.149801
396 13 2 4.358764 5.426080 3.394871
397 13 2 4.608700 6.271136 3.867536
398 13 2 4.915809 6.147403 2.923939
399 13 2 4.999587 5.237782 2.517033
400 13 2 4.457881 6.060092 2.691281
401 13 2 4.866245 5.957350 1.784262
402 13 2 4.046601 6.181027 1.256860
403 13 2 3.306342 5.511142 1.314052
404 13 2 3.203471 6.463404 1.601481
405 13 2 3.115097 5.595655 1.112398
406 13 2 4.025909 5.999280 1.025746
407 13 2 4.989919 6.170082 0.822003
408 13 2 4.828226 5.593912 1.623180
409 13 2 5.707364 5.172746 1.400161
410 13 2 4.805603 5.293235 0.985058
411 13 2 5.203072 4.377227 0.930759
412 13 2 4.664953 4.152148 0.118499
413 13 2 4.686836 4.778977 0.897349
414 13 2 3.719695 4.611163 0.706362
415 13 2 3.299775 4.994457 9.883712
416 13 2 3.240267 3.997039 9.923905
417 14 2 3.571740 1.019546 8.149921
418 14 2 3.514353 0.406350 7.362078
419 14 2 3.770346 1.341973 7.119019
420 14 2 3.315720 1.858518 7.844619
421 14 2 3.238665 2.102034 6.877788
422 14 2 3.720490 1.702272 6.098023
423 14 2 4.279511 1.985923 6.877149
424 14 2 3.648878 2.173192 6.124001
425 14 2 3.686654 2.079292 5.129136
426 14 2 4.510147 2.643295 5.190451
427 14 2 4.451523 1.877806 5.831224
428 14 2 4.694961 1.206079 6.530881
429 14 2 4.947234 0.993913 5.586771
430 14 2 5.310798 1.635283 4.911147
431 14 2 6.162049 2.131469 4.740352
432 14 2 5.265029 2.000783 4.318125
433 14 2 6.015489 1.942804 4.976492
434 14 2 5.215124 1.362831 5.128303
435 14 2 5.260620 0.634295 5.811798
436 14 2 4.766764 0.999121 6.601107
437 14 2 5.276975 0.303898 7.107416
438 14 2 6.074336 0.905942 7.065489
439 14 2 5.602142 1.509653 7.707802
440 14 2 5.504803 0.543226 7.945592
441 14 2 5.604519 1.368939 7.390386
442 14 2 5.771413 1.653082 6.446241
443 14 2 4.922043 1.587740 6.969980
444 14 2 5.699785 1.806071 6.380531
445 14 2 4.811070 2.075138 6.009331
446 14 2 5.342046 1.268509 5.749688
447 14 2 4.844528 0.803280 6.481834
448 14 2 5.667868 0.602800 5.950874
449 15 2 5.401881 6.290069 6.600538
450 15 2 4.589404 6.192674 7.175339
451 15 2 3.795154 5.818982 6.696255
452 15 2 3.674926 6.809652 6.760428
453 15 2 4.625300 6.820807 6.449520
454 15 2 4.813292 6.583694 5.496400
455 15 2 5.639629 6.641126 4.936161
456 15 2 4.712471 6.819456 5.265670
457 15 2 4.432809 6.036369 4.710185
458 15 2 3.875509 5.779085 5.499629
459 15 2 3.190861 6.448092 5.210343
460 15 2 4.129039 6.670664 4.945234
461 15 2 4.463161 7.009565 4.065741
462 15 2 4.771460 7.222950 3.138692
463 15 2 5.605113 7.719384 3.380715
464 15 2 5.556625 6.725998 3.276638
465 15 2 4.765201 6.713239 2.665504
466 15 2 5.560329 7.286363 2.863746
467 15 2 5.407774 7.263488 1.875716
468 15 2 4.631541 7.699870 1.420707
469 15 2 5.613487 7.873887 1.494869
470 15 2 6.236750 8.494832 1.970233
471 15 2 7.215269 8.352321 2.119195
472 15 2 6.228058 8.504559 2.166501
473 15 2 5.586141 7.910663 2.651506
474 15 2 6.194637 8.180811 3.397664
475 15 2 5.395165 7.969840 2.835227
476 15 2 5.592039 7.547139 3.719854
477 15 2 6.276369 7.852433 3.057670
478 15 2 6.508734 8.802053 3.267977
479 15 2 6.761697 8.101660 2.600549
480 15 2 6.638106 9.074262 2.797454
481 16 2 5.145181 0.049152 6.159117
482 16 2 5.640101 0.355068 5.345809
483 16 2 5.455481 9.906182 4.471500
484 16 2 5.157351 9.072810 4.936912
485 16 2 5.811879 8.469996 5.393211
486 16 2 6.576544 8.057864 4.897797
487 16 2 6.536706 7.939434 3.905634
488 16 2 6.311095 7.264676 4.608343
489 16 2 6.456491 6.836305 3.716515
490 16 2 5.890981 7.488482 4.221354
491 16 2 6.347572 8.298668 3.853761
492 16 2 6.568382 7.324360 3.898108
493 16 2 6.775484 7.132448 4.857420
494 16 2 7.511910 7.047971 4.186196
495 16 2 7.521553 7.574042 3.335810
496 16 2 7.087063 7.063381 4.077729
497 16 2 7.697444 6.329404 3.779883
498 16 2 8.614936 6.641117 3.532816
499 16 2 8.368010 7.598499 3.682636
500 16 2 8.467164 6.878176 4.369152
501 16 2 7.867820 7.056033 3.588669
502 16 2 6.928279 7.393337 3.647727
503 16 2 7.035097 8.195800 3.060664
504 16 2 6.671018 8.032413 3.977588
505 16 2 7.038248 8.032180 4.907718
506 16 2 7.322914 7.527519 5.722753
507 16 2 8.260076 7.371048 5.410913
508 16 2 7.733886 6.533474 5.557859
509 16 2 7.406145 7.051717 6.347802
510 16 2 7.810424 6.544494 5.586695
511 16 2 7.525668 5.668183 5.198117
512 16 2 6.578587 5.509710 5.477268
513 17 2 3.234674 8.672552 9.363731
514 17 2 2.764791 9.554558 9.399424
515 17 2 2.933749 0.274901 0.072149
516 17 2 2.240579 0.972887 9.892342
517 17 2 2.992343 0.315571 9.839551
518 17 2 3.206369 9.339288 9.872195
519 17 2 2.854468 8.529302 0.341330
520 17 2 3.611577 8.928765 0.858259
521 17 2 4.584165 9.144288 0.770956
522 17 2 4.656897 8.181180 0.511853
523 17 2 5.218866 8.998318 0.383496
524 17 2 6.060364 9.066793 9.847593
525 17 2 6.577100 9.393070 0.639128
526 17 2 6.860248 0.349970 0.703700
527 17 2 5.871111 0.488169 0.653608
528 17 2 6.352746 0.100217 9.867782
529 17 2 6.804074 0.824358 9.346319
530 17 2 6.969229 9.857062 9.153801
531 17 2 6.347323 0.006789 9.922446
532 17 2 5.864003 0.255696 0.761760
533 17 2 6.756826 0.677597 0.919454
534 17 2 7.528450 1.313535 0.906083
535 17 2 7.665980 1.077496 9.944121
536 17 2 7.476480 2.051980 0.064415
537 17 2 6.867422 2.835191 9.939401
538 17 2 7.066058 3.442897 9.170482
539 17 2 6.335334 2.905676 9.591712
540 17 2 6.511719 3.494470 0.380515
541 17 2 6.803467 4.371834 0.761455
542 17 2 7.457940 4.104880 0.054065
543 17 2 7.847332 4.027821 0.971908
544 17 2 7.722859 3.649839 1.889316
545 18 2 6.968413 5.347195 8.260009
546 18 2 6.116103 5.214271 7.754145
547 18 2 6.531407 6.096266 7.976870
548 18 2 6.370950 5.467696 7.215849
549 18 2 6.133591 4.534339 6.946580
550 18 2 5.997185 3.652495 7.397961
551 18 2 6.300975 2.938344 6.767326
552 18 2 7.098115 2.360175 6.941364
553 18 2 6.159340 2.103850 6.711147
554 18 2 6.696483 1.462460 6.163336
555 18 2 6.645856 1.327388 5.173795
556 18 2 5.853028 1.936823 5.170317
557 18 2 5.058125 2.367262 4.742705
558 18 2 5.617933 2.418483 3.915667
559 18 2 5.611539 2.306135 4.909315
560 18 2 5.554038 3.297213 5.029558
561 18 2 6.407218 3.502447 4.550014
562 18 2 7.143172 3.033692 5.038524
563 18 2 7.050572 4.012818 4.857583
564 18 2 7.120736 4.999884 5.001724
565 18 2 6.627613 4.624467 5.786511
566 18 2 6.552620 3.782933 5.251538
567 18 2 5.897677 4.187767 5.889629
568 18 2 6.701642 4.441295 6.427555
569 18 2 7.570142 4.785615 6.784138
570 18 2 7.178919 5.697845 6.662558
571 18 2 6.933531 5.674032 5.693426
572 18 2 6.269203 4.946988 5.520006
573 18 2 6.781713 5.401161 6.248745
574 18 2 5.858919 5.125535 5.979521
575 18 2 5.265708 5.763131 6.471021
576 18 2 4.924265 6.616380 6.865208
577 19 2 9.492418 3.945367 5.805962
578 19 2 9.022113 4.802398 6.016463
579 19 2 9.255216 4.595681 6.966690
580 19 2 9.912151 5.267859 7.308177
581 19 2 9.689666 4.443633 7.828900
582 19 2 9.599778 4.995618 8.657894
583 19 2 0.481780 5.323103 8.996755
584 19 2 0.842578 5.145153 8.081245
585 19 2 9.918230 5.026374 7.718654
586 19 2 8.989940 5.299801 7.970676
587 19 2 9.598696 4.777244 7.373724
588 19 2 0.349772 5.330435 7.013358
589 19 2 0.621707 5.189865 6.061364
590 19 2 0.715128 4.587740 5.268447
591 19 2 1.457393 5.252867 5.186906
592 19 2 1.621338 4.381037 5.648461
593 19 2 1.308209 5.220112 5.203599
594 19 2 1.386689 6.044299 5.764452
595 19 2 2.291175 6.130394 5.346728
596 19 2 2.841766 5.673448 6.045334
597 19 2 2.706749 6.646914 6.230089
598 19 2 2.619672 6.483825 5.247328
599 19 2 3.470819 6.116719 4.872117
600 19 2 4.135252 5.618189 5.428890
601 19 2 4.161556 6.616922 5.471781
602 19 2 3.554795 6.666020 4.678414
603 19 2 3.486575 5.668405 4.667906
604 19 2 3.384069 6.145309 5.540864
605 19 2 3.816118 7.044799 5.606072
606 19 2 3.558020 7.693620 4.890240
607 19 2 3.218584 7.934724 3.981035
608 19 2 2.398894 7.396828 3.784117
609 20 2 8.882199 3.958060 7.301005
610 20 2 9.658901 3.666372 6.742746
611 20 2 8.779810 3.818307 6.290955
612 20 2 8.677108 4.452919 7.056931
613 20 2 8.020698 5.195298 7.191093
614 20 2 8.549323 5.914899 6.740839
615 20 2 9.315338 5.999931 6.103665
616 20 2 9.177764 5.433244 5.291298
617 20 2 9.501763 5.303352 4.354200
618 20 2 8.915054 6.033564 4.004111
619 20 2 9.309818 6.919203 4.248662
620 20 2 0.142498 6.367048 4.206606
621 20 2 0.675674 6.279088 5.048026
622 20 2 9.909472 6.474616 5.660156
623 20 2 0.775870 6.061774 5.941075
624 20 2 0.248254 6.668328 5.346338
625 20 2 0.868240 7.291680 4.869841
626 20 2 1.466459 6.490881 4.840608
627 20 2 1.755698 6.326850 3.897510
628 20 2 1.237245 6.027847 4.698637
629 20 2 1.440180 6.414168 5.598400
630 20 2 1.265621 5.755082 6.329929
631 20 2 1.927969 5.011220 6.419176
632 20 2 2.534334 4.616192 7.109303
633 20 2 2.261934 3.655064 7.154358
634 20 2 2.403360 4.620470 7.373424
635 20 2 2.107274 3.901922 8.002727
636 20 2 3.093015 4.069844 7.991860
637 20 2 2.413252 3.346221 8.111411
638 20 2 2.874021 2.574165 8.549158
639 20 2 3.346627 3.447269 8.668877
640 20 2 4.206939 3.298431 9.156432
