#Initial configuration
64000 atoms
2 atom types
62000 bonds
1 bond types
0.0 100.676619 xlo xhi
0.0 100.676619 ylo yhi
0.0 100.676619 zlo zhi
0 0 0 xy xz yz

Atoms # bond

1 1 1 24.635040 29.553245 70.001543
2 1 1 25.435395 28.962556 69.898982
3 1 1 25.986620 28.730112 69.097657
4 1 1 25.829635 29.555897 69.639354
5 1 1 25.338595 28.685517 69.675670
6 1 1 26.033132 28.010118 69.923572
7 1 1 26.404367 27.302345 69.322537
8 1 1 25.425380 27.208952 69.503817
9 1 1 24.785962 27.606498 68.845713
10 1 1 24.768361 28.591978 69.014593
11 1 1 25.490633 27.918143 68.858804
12 1 1 25.170252 27.368858 68.087026
13 1 1 25.583544 28.234593 67.804728
14 1 1 25.351259 29.143919 67.459520
15 1 1 25.590340 28.226311 67.777064
16 1 1 26.439848 27.989333 67.305706
17 1 1 25.752322 27.374252 67.691692
18 1 1 26.580970 27.251719 68.237886
19 1 1 26.223641 27.846751 67.517988
20 1 1 26.422424 26.872056 67.620236
21 1 1 26.569053 27.073091 66.651688
22 1 1 25.876165 26.914822 67.355148
23 1 1 25.089906 26.300142 67.292168
24 1 1 24.800609 26.940820 68.003392
25 1 1 24.700965 26.308774 68.771890
26 1 1 25.554081 26.061302 68.312597
27 1 1 24.713441 26.155825 68.845879
28 1 1 24.147667 26.564892 69.561816
29 1 1 24.039242 27.406602 69.032885
30 1 1 23.939208 26.849130 69.857032
31 1 1 24.027441 26.999632 68.872367
32 1 1 23.343085 26.476818 68.364113
33 2 1 1.272088 91.105490 25.804240
34 2 1 2.147738 91.575723 25.694156
35 2 1 2.395176 91.435512 26.652862
36 2 1 2.998586 91.661687 25.888178
37 2 1 3.864989 92.045456 26.207660
38 2 1 4.023492 92.972184 25.866997
39 2 1 3.286987 93.583179 26.157250
40 2 1 3.906512 94.284644 26.509579
41 2 1 3.872703 95.280542 26.593505
42 2 1 4.146133 95.534456 25.665731
43 2 1 4.233231 96.286782 25.012723
44 2 1 3.571757 96.992696 24.759471
45 2 1 3.046196 96.324864 25.286525
46 2 1 3.293275 96.818110 26.120587
47 2 1 3.746796 96.437140 26.926305
48 2 1 3.528282 96.371097 27.899901
49 2 1 4.276290 96.896686 27.494635
50 2 1 4.264376 96.187114 26.790102
51 2 1 3.913267 96.879741 27.420173
52 2 1 4.748727 96.728239 27.948427
53 2 1 3.901588 96.197772 27.917458
54 2 1 3.971813 97.141782 28.239814
55 2 1 4.904794 96.786893 28.179819
56 2 1 4.673040 97.113372 29.096171
57 2 1 5.355895 96.550473 29.561847
58 2 1 5.891931 95.733856 29.775863
59 2 1 5.094274 95.722486 30.378868
60 2 1 5.530191 94.856132 30.135133
61 2 1 4.818147 95.530513 29.939678
62 2 1 5.661112 96.038539 30.116651
63 2 1 5.997666 95.343910 29.480866
64 2 1 5.282984 95.984784 29.761063
65 3 1 1.552479 93.398604 21.361115
66 3 1 2.182288 94.028709 20.906906
67 3 1 2.194857 93.128722 20.471172
68 3 1 2.427078 92.225593 20.832326
69 3 1 1.935817 92.949559 21.316616
70 3 1 2.107480 93.548474 22.098814
71 3 1 2.878005 93.118671 22.569516
72 3 1 2.305148 92.697787 21.866173
73 3 1 3.270700 92.645359 21.611299
74 3 1 4.095397 92.338437 22.086351
75 3 1 4.200194 93.292579 21.805938
76 3 1 3.492109 93.299451 21.099845
77 3 1 3.815719 92.515155 21.629143
78 3 1 4.353645 91.715608 21.896276
79 3 1 4.017666 90.773844 21.910396
80 3 1 4.158554 89.872664 21.500489
81 3 1 3.457822 89.202408 21.256087
82 3 1 4.398379 89.461231 21.036170
83 3 1 5.285293 89.558161 21.487821
84 3 1 5.964705 88.830526 21.582404
85 3 1 5.539076 89.478172 20.950428
86 3 1 4.597807 89.775341 20.790101
87 3 1 3.824144 89.542542 21.379380
88 3 1 4.595784 89.726287 21.988321
89 3 1 3.595996 89.743195 22.000056
90 3 1 3.174161 89.742943 22.906729
91 3 1 3.177000 88.781924 22.630259
92 3 1 4.063383 88.421250 22.340018
93 3 1 4.841380 88.959515 22.015994
94 3 1 4.810255 89.555685 21.213739
95 3 1 4.895610 89.520740 22.209476
96 3 1 5.076464 90.467081 22.477302
97 4 1 89.827999 4.367911 87.463116
98 4 1 90.454066 4.516940 86.697720
99 4 1 91.388791 4.854600 86.808512
100 4 1 90.796188 5.171828 86.068114
101 4 1 90.293067 5.910236 85.619090
102 4 1 90.518772 6.546153 86.357106
103 4 1 90.360126 7.407088 86.840451
104 4 1 89.378468 7.435230 86.651887
105 4 1 88.706214 6.694958 86.643501
106 4 1 89.446157 6.428496 86.025858
107 4 1 89.888496 5.547702 86.194793
108 4 1 89.982885 4.649141 86.623370
109 4 1 90.011693 4.296743 87.558777
110 4 1 90.436510 5.032234 87.030967
111 4 1 89.497600 4.852589 86.737410
112 4 1 90.412849 5.242572 86.636256
113 4 1 89.986190 4.520805 86.091266
114 4 1 90.204812 4.908892 86.986584
115 4 1 89.990269 4.085414 86.461364
116 4 1 89.312710 4.220284 87.184360
117 4 1 90.277823 4.137386 86.935996
118 4 1 90.154965 4.771506 87.699408
119 4 1 90.316336 3.785453 87.658680
120 4 1 91.192610 3.732083 88.137529
121 4 1 91.570928 4.176089 87.325288
122 4 1 92.051599 4.915596 86.854029
123 4 1 92.891036 4.399403 87.024003
124 4 1 92.367442 4.760097 87.795851
125 4 1 91.818714 4.780835 86.960107
126 4 1 92.704251 4.850687 87.419394
127 4 1 92.015503 4.544918 88.076760
128 4 1 92.080628 5.187089 87.312970
129 5 1 36.720881 94.868246 7.067787
130 5 1 36.391075 95.432833 7.824404
131 5 1 35.838103 95.421874 8.657532
132 5 1 36.481813 96.121410 8.347231
133 5 1 36.034327 95.232331 8.443643
134 5 1 36.579889 94.928599 9.224738
135 5 1 35.622290 95.146344 9.036085
136 5 1 34.761725 95.211065 9.541297
137 5 1 35.512320 95.132464 10.197368
138 5 1 36.025954 94.758162 10.969429
139 5 1 36.830403 95.287347 10.699568
140 5 1 36.085661 95.456994 10.054139
141 5 1 35.835038 96.254747 9.505706
142 5 1 36.798598 96.522215 9.502176
143 5 1 35.981070 97.091157 9.412999
144 5 1 36.009506 97.675672 10.223884
145 5 1 36.516164 97.855761 11.067012
146 5 1 35.583540 97.591355 10.821448
147 5 1 35.325158 96.674763 11.126569
148 5 1 35.601014 95.990954 11.802075
149 5 1 35.720647 95.600419 10.889294
150 5 1 36.098244 96.010314 11.719598
151 5 1 35.708350 96.571729 12.449527
152 5 1 36.126686 97.479411 12.416233
153 5 1 36.733559 97.607346 13.200668
154 5 1 36.356750 96.879125 12.628209
155 5 1 36.111387 97.105769 13.570775
156 5 1 36.269583 98.079906 13.409437
157 5 1 35.545987 98.515431 12.873969
158 5 1 36.246560 98.223897 12.222659
159 5 1 36.192008 97.241507 12.401358
160 5 1 36.455775 96.332130 12.723012
161 6 1 61.865619 6.439696 48.132525
162 6 1 62.043246 5.484501 48.369276
163 6 1 62.010310 6.467613 48.549292
164 6 1 61.710114 6.249552 47.620673
165 6 1 62.649082 5.906159 47.600171
166 6 1 62.298514 6.836627 47.493726
167 6 1 62.331577 7.231026 46.575382
168 6 1 62.193309 6.455301 47.191118
169 6 1 61.700539 7.103434 47.771723
170 6 1 62.674354 6.920650 47.636540
171 6 1 62.186965 7.095321 48.492076
172 6 1 62.217510 7.977357 48.021885
173 6 1 61.960518 7.375872 48.778305
174 6 1 62.011641 6.471362 49.201681
175 6 1 61.215642 6.675614 49.771476
176 6 1 60.231095 6.848834 49.797213
177 6 1 59.762037 6.006321 49.532341
178 6 1 60.628308 5.750739 49.961589
179 6 1 61.549685 6.124374 49.854528
180 6 1 61.920461 6.163989 50.782405
181 6 1 60.937748 5.991111 50.716163
182 6 1 60.620757 6.935632 50.630162
183 6 1 61.345208 6.406784 50.188019
184 6 1 61.145975 5.429459 50.259717
185 6 1 61.369368 4.472785 50.072977
186 6 1 60.636166 4.195149 50.693729
187 6 1 61.544657 3.858441 50.446195
188 6 1 62.178798 3.257213 49.959997
189 6 1 62.396710 3.793229 49.144398
190 6 1 61.921939 4.666839 49.037631
191 6 1 62.353144 3.766758 49.100215
192 6 1 61.442936 3.381531 49.252274
193 7 1 84.475585 87.709743 71.974160
194 7 1 85.168632 87.763201 71.255253
195 7 1 85.074399 86.782222 71.424964
196 7 1 84.521344 86.997309 70.620062
197 7 1 85.354010 86.451738 70.525089
198 7 1 84.678559 86.287191 71.243901
199 7 1 85.544978 86.718808 71.494951
200 7 1 86.118279 86.471829 70.713717
201 7 1 85.694699 87.294826 70.335227
202 7 1 85.843166 86.329419 70.549577
203 7 1 86.144046 85.478165 70.119648
204 7 1 86.536660 84.561861 70.040651
205 7 1 85.948169 84.969331 70.738968
206 7 1 85.735817 85.546974 69.950783
207 7 1 85.070948 84.917352 70.352684
208 7 1 85.700958 84.374190 70.907719
209 7 1 86.619442 84.760782 70.990990
210 7 1 86.906453 83.827098 70.776842
211 7 1 87.048297 84.805604 70.627153
212 7 1 87.226728 85.789511 70.617677
213 7 1 86.314170 86.117779 70.373796
214 7 1 86.351829 87.048429 70.009826
215 7 1 86.726989 86.929453 70.929119
216 7 1 86.855597 87.379404 71.812863
217 7 1 87.682150 87.764389 71.402258
218 7 1 87.953470 87.831070 70.442081
219 7 1 87.202651 88.454260 70.660953
220 7 1 87.656618 89.320866 70.868094
221 7 1 88.622734 89.578950 70.871628
222 7 1 89.247199 90.284684 71.206268
223 7 1 89.230611 90.966350 70.474793
224 7 1 90.105268 91.034276 69.994835
225 8 1 47.204461 61.394190 28.194248
226 8 1 46.959797 61.613651 27.249803
227 8 1 47.181407 61.493579 28.217517
228 8 1 46.321269 61.742501 28.662714
229 8 1 46.227814 61.410360 27.724126
230 8 1 46.302375 61.201006 28.699119
231 8 1 46.001395 61.360731 29.639278
232 8 1 45.885005 60.372742 29.740920
233 8 1 45.059314 59.937162 29.382445
234 8 1 45.663885 59.385706 28.807649
235 8 1 44.821766 59.384154 28.268360
236 8 1 44.050606 59.202878 27.658072
237 8 1 44.430730 58.332530 27.345023
238 8 1 45.339608 58.674645 27.106490
239 8 1 45.604158 57.743976 27.359211
240 8 1 44.664523 57.440182 27.201743
241 8 1 44.539652 58.408432 26.985180
242 8 1 45.241318 58.399419 27.697629
243 8 1 45.103206 59.200719 27.115527
244 8 1 45.895619 59.726633 27.424549
245 8 1 45.917947 60.405470 26.690599
246 8 1 46.845932 60.429863 26.318783
247 8 1 47.259964 60.178045 27.193520
248 8 1 46.343528 59.967019 27.533537
249 8 1 46.998668 60.672644 27.803506
250 8 1 47.850641 60.351524 27.389956
251 8 1 48.021243 60.638722 28.332512
252 8 1 48.902805 60.347912 27.960653
253 8 1 49.796729 60.715249 28.217485
254 8 1 50.358137 60.380604 28.974343
255 8 1 50.322734 61.082897 29.685350
256 8 1 50.232073 61.260573 30.665254
257 9 1 56.899140 52.616583 45.425948
258 9 1 56.285590 52.784473 46.197550
259 9 1 57.005523 52.631570 45.520559
260 9 1 57.835389 52.462085 44.988960
261 9 1 58.366414 52.722652 44.182662
262 9 1 58.249076 53.517728 44.777712
263 9 1 58.266845 52.543904 45.004320
264 9 1 59.192643 52.921768 44.993497
265 9 1 59.011477 53.738574 45.541226
266 9 1 59.670999 54.377659 45.936954
267 9 1 60.324333 54.918701 46.466508
268 9 1 60.372972 55.836190 46.071732
269 9 1 61.086410 55.227488 46.418845
270 9 1 61.755968 55.074141 45.692087
271 9 1 61.702030 54.076989 45.744800
272 9 1 60.877079 54.429490 45.302987
273 9 1 61.585841 53.830565 44.930234
274 9 1 60.643733 53.925558 44.608664
275 9 1 60.952783 54.550460 45.325592
276 9 1 60.850163 53.576560 45.528045
277 9 1 61.676537 54.131346 45.624574
278 9 1 62.449455 54.195503 46.255829
279 9 1 63.190716 54.434124 46.883198
280 9 1 64.153445 54.178155 46.795839
281 9 1 65.138819 54.142880 46.962555
282 9 1 66.055629 54.464700 47.198968
283 9 1 65.763137 53.909477 47.977541
284 9 1 64.962966 53.632159 47.445732
285 9 1 64.284611 53.700551 46.714187
286 9 1 64.316256 52.912372 47.328818
287 9 1 63.528725 53.109952 46.745074
288 9 1 63.220990 52.578571 47.534336
289 10 1 31.610179 53.418229 4.401447
290 10 1 32.268711 54.020364 3.950039
291 10 1 33.253883 53.980430 4.116896
292 10 1 33.805771 53.229698 4.479969
293 10 1 33.455581 52.346913 4.166828
294 10 1 34.389486 52.061973 3.950886
295 10 1 33.881723 52.300968 4.778568
296 10 1 33.550996 52.796003 5.582036
297 10 1 34.506005 53.002227 5.368893
298 10 1 34.018425 53.787225 5.751051
299 10 1 34.961359 53.460425 5.814918
300 10 1 35.910518 53.734596 5.969603
301 10 1 35.527995 53.637359 5.050788
302 10 1 35.935151 52.725843 4.992800
303 10 1 36.174569 51.756508 5.048201
304 10 1 36.021044 51.568122 4.078180
305 10 1 35.523182 50.798350 4.477659
306 10 1 36.430659 50.410157 4.638260
307 10 1 36.367010 50.487118 5.633260
308 10 1 36.002910 50.600530 6.557689
309 10 1 35.508239 51.452226 6.730648
310 10 1 35.494701 50.457552 6.832818
311 10 1 34.902410 49.693542 6.576926
312 10 1 34.180073 50.307015 6.257739
313 10 1 33.765213 49.416435 6.071303
314 10 1 33.361136 48.719331 5.479046
315 10 1 32.577024 48.129698 5.672695
316 10 1 33.398183 47.707079 6.056221
317 10 1 32.411297 47.552553 6.102895
318 10 1 31.800172 46.853046 5.732468
319 10 1 31.911374 47.812474 5.473370
320 10 1 31.150791 48.271125 5.013856
321 11 1 94.353564 71.166214 62.571474
322 11 1 93.563007 70.604498 62.815392
323 11 1 92.992003 70.081475 62.182619
324 11 1 92.774454 69.674512 61.295459
325 11 1 92.320906 70.469963 61.697395
326 11 1 92.709517 71.353668 61.958251
327 11 1 91.766095 71.631815 62.138775
328 11 1 92.033339 70.676914 62.009369
329 11 1 91.203871 70.503346 62.540271
330 11 1 91.729089 69.962003 63.196849
331 11 1 91.970834 70.604477 62.469672
332 11 1 92.520739 71.288297 62.949248
333 11 1 93.309083 70.714133 62.728227
334 11 1 93.514447 69.849555 62.269610
335 11 1 93.738188 70.800130 62.484894
336 11 1 93.267276 69.918228 62.462710
337 11 1 93.851861 70.721719 62.350178
338 11 1 93.967396 71.311429 61.550869
339 11 1 94.176141 72.092993 60.963006
340 11 1 94.093565 72.148034 59.967943
341 11 1 94.660206 71.881918 60.747751
342 11 1 93.670025 71.955439 60.866648
343 11 1 93.375905 72.628976 60.188532
344 11 1 94.258876 72.352898 59.808871
345 11 1 93.715099 71.586209 60.150185
346 11 1 93.920104 72.073195 59.301175
347 11 1 93.726548 72.988152 59.655278
348 11 1 94.102359 72.577232 60.485887
349 11 1 93.989756 72.762136 61.462171
350 11 1 93.667808 72.204499 60.697063
351 11 1 93.322632 71.266982 60.653298
352 11 1 93.936789 70.982513 61.389429
353 12 1 4.456685 72.961501 13.017796
354 12 1 4.004110 73.775227 12.653069
355 12 1 3.397571 73.664310 11.865790
356 12 1 4.345743 73.395715 11.696005
357 12 1 4.852415 74.123021 12.158942
358 12 1 4.384215 74.797202 12.730141
359 12 1 4.087834 73.858612 12.906795
360 12 1 4.597218 73.743592 13.759613
361 12 1 3.891075 73.605729 14.454132
362 12 1 2.955161 73.957808 14.443872
363 12 1 3.693519 73.294094 14.563499
364 12 1 4.130775 73.985063 15.139146
365 12 1 3.528403 73.799751 14.362740
366 12 1 3.634643 73.356416 13.472702
367 12 1 4.348739 74.054335 13.527253
368 12 1 4.342320 73.292144 14.174573
369 12 1 3.396952 73.001085 14.321420
370 12 1 2.420594 72.872038 14.494833
371 12 1 2.594998 72.428052 15.373730
372 12 1 2.018307 72.689937 16.147580
373 12 1 1.770814 71.933185 15.542540
374 12 1 0.956281 72.498046 15.674701
375 12 1 0.599772 72.055617 14.851805
376 12 1 100.574529 71.911678 15.549423
377 12 1 99.937254 72.238730 14.851629
378 12 1 0.245194 72.072890 14.795588
379 12 1 0.332901 72.231234 15.779069
380 12 1 0.608762 72.882003 15.071679
381 12 1 0.864245 72.275011 14.319157
382 12 1 1.770566 72.678775 14.443885
383 12 1 2.549476 72.606790 15.066876
384 12 1 1.819402 72.304830 15.679911
385 13 1 75.059187 3.347757 64.862151
386 13 1 74.701070 3.175929 65.779881
387 13 1 75.458529 3.793602 65.991390
388 13 1 75.798837 4.606502 66.464025
389 13 1 76.776580 4.415076 66.549905
390 13 1 77.409640 3.876777 67.106205
391 13 1 78.139884 4.257172 66.538716
392 13 1 77.845883 3.306080 66.443907
393 13 1 78.452967 3.032609 67.190005
394 13 1 77.976506 2.203031 66.898827
395 13 1 77.069701 2.278243 67.313612
396 13 1 77.625075 2.762228 66.637358
397 13 1 76.918813 2.266455 67.142733
398 13 1 77.315489 1.827184 66.336700
399 13 1 76.751671 1.006961 66.240044
400 13 1 75.961007 0.639075 66.729442
401 13 1 75.525241 1.524128 66.565764
402 13 1 75.959599 1.382390 67.455283
403 13 1 75.742421 2.227519 67.943740
404 13 1 75.818912 1.231436 67.988087
405 13 1 75.728313 0.307399 68.359501
406 13 1 75.727338 1.092710 67.740400
407 13 1 76.009536 1.671524 68.505474
408 13 1 76.325050 2.209067 67.723491
409 13 1 77.070799 1.566126 67.548890
410 13 1 77.762451 1.012051 68.012159
411 13 1 77.150791 0.241351 67.833566
412 13 1 77.541339 1.093115 67.484323
413 13 1 78.166834 1.859045 67.633003
414 13 1 79.057509 2.070613 67.230589
415 13 1 78.880673 1.327276 66.585470
416 13 1 78.543316 0.398523 66.431822
417 14 1 94.764288 93.584310 96.735357
418 14 1 94.859986 92.597772 96.602753
419 14 1 95.662966 92.869383 97.133272
420 14 1 95.816582 91.921767 97.413317
421 14 1 94.934249 91.640326 97.790516
422 14 1 94.694342 91.918784 98.720519
423 14 1 94.065525 92.440692 99.296887
424 14 1 94.634818 91.914621 98.665101
425 14 1 93.648349 91.781884 98.761321
426 14 1 93.181737 92.190865 97.977097
427 14 1 93.251487 93.091310 97.547754
428 14 1 92.719581 92.442371 97.003736
429 14 1 93.174419 93.332788 96.987014
430 14 1 93.846379 94.067491 97.080191
431 14 1 94.293938 94.448054 96.270955
432 14 1 93.926834 95.378051 96.252469
433 14 1 94.571664 96.135471 96.354980
434 14 1 93.767202 96.143713 95.761033
435 14 1 94.274011 96.183070 94.899873
436 14 1 93.545125 95.735558 95.418002
437 14 1 92.664135 96.206143 95.467056
438 14 1 93.557517 96.136076 95.910857
439 14 1 92.902381 96.625008 95.334885
440 14 1 92.360694 95.883809 95.731369
441 14 1 91.856028 96.508965 95.135976
442 14 1 92.296413 95.824490 94.554982
443 14 1 92.650014 95.965672 95.479663
444 14 1 91.673410 95.786179 95.598100
445 14 1 91.976677 94.846713 95.757578
446 14 1 91.979879 94.475254 96.686022
447 14 1 91.001168 94.608512 96.842123
448 14 1 91.013598 94.725593 95.849078
449 15 1 84.476515 77.438916 50.093825
450 15 1 84.058947 77.701935 50.963571
451 15 1 84.720996 77.146912 50.459944
452 15 1 85.591346 76.674357 50.598446
453 15 1 86.091785 75.819506 50.461367
454 15 1 86.793890 76.163464 51.084859
455 15 1 85.823321 76.377187 50.973872
456 15 1 85.220631 77.125698 51.250450
457 15 1 85.880981 77.062071 50.502193
458 15 1 85.158178 77.309797 49.857066
459 15 1 84.982616 76.568997 50.505443
460 15 1 84.154153 76.052881 50.722869
461 15 1 83.554139 76.542233 50.090005
462 15 1 84.309717 77.110759 49.764614
463 15 1 84.559673 77.638813 48.953022
464 15 1 85.346159 77.825587 49.541712
465 15 1 85.607191 76.963446 49.107460
466 15 1 84.649369 77.192735 49.280677
467 15 1 85.409660 76.560661 49.430477
468 15 1 85.125454 76.375511 50.371193
469 15 1 85.136096 77.349256 50.598583
470 15 1 84.518942 76.925565 49.935555
471 15 1 84.381739 77.312646 49.023775
472 15 1 84.384789 77.047400 48.059599
473 15 1 84.738728 76.252366 48.552193
474 15 1 85.241205 77.110388 48.445823
475 15 1 84.326076 76.714525 48.369458
476 15 1 85.248705 76.405423 48.138782
477 15 1 85.678469 76.277351 47.244970
478 15 1 86.106211 76.028772 48.114018
479 15 1 86.892404 76.595831 47.868364
480 15 1 87.828927 76.934834 47.957810
481 16 1 61.647658 36.097279 51.250364
482 16 1 61.655968 35.773764 52.196551
483 16 1 61.519318 34.789541 52.308938
484 16 1 61.069923 34.616478 51.432528
485 16 1 60.685509 34.894077 52.312962
486 16 1 60.036999 35.652441 52.247241
487 16 1 60.504216 35.005235 52.849597
488 16 1 59.609636 35.166163 52.432668
489 16 1 59.038314 35.559610 51.712398
490 16 1 58.436289 35.723227 50.930864
491 16 1 59.051295 36.094831 51.626333
492 16 1 58.275317 36.580788 52.028456
493 16 1 57.600101 36.248796 52.687141
494 16 1 58.054008 36.029428 53.550765
495 16 1 58.237314 37.010925 53.495415
496 16 1 58.079435 36.223600 52.899434
497 16 1 57.874694 35.353804 53.348363
498 16 1 57.853489 35.671083 52.400268
499 16 1 58.561991 35.241733 51.840193
500 16 1 59.193002 35.979251 52.080802
501 16 1 58.450366 35.555387 52.599291
502 16 1 59.401431 35.762114 52.828940
503 16 1 59.999556 36.379799 53.339540
504 16 1 59.234991 35.979941 53.845064
505 16 1 58.434112 35.727375 53.302107
506 16 1 58.103831 35.574407 52.370702
507 16 1 57.826367 36.407565 52.849096
508 16 1 56.885914 36.331075 53.180304
509 16 1 57.089668 35.362150 53.040061
510 16 1 56.732691 35.527289 52.120661
511 16 1 56.239703 35.599255 52.987716
512 16 1 56.773810 34.851878 52.592548
513 17 1 42.330187 11.684646 67.089034
514 17 1 41.443146 11.267536 66.891099
515 17 1 41.646146 10.464352 67.451178
516 17 1 42.545505 10.062409 67.623212
517 17 1 42.274371 9.475609 68.386201
518 17 1 42.102934 8.594700 68.827346
519 17 1 42.646585 8.092627 69.499927
520 17 1 43.224706 7.970356 68.693188
521 17 1 43.265165 8.235824 67.729918
522 17 1 42.744119 9.074647 67.572160
523 17 1 43.449756 8.392637 67.379966
524 17 1 42.881003 8.038875 66.637421
525 17 1 42.368955 7.183905 66.554764
526 17 1 41.961673 7.399452 67.442267
527 17 1 41.125842 6.850469 67.440049
528 17 1 41.418114 7.308277 66.600412
529 17 1 41.888448 7.903302 65.948699
530 17 1 42.503885 8.526721 65.466428
531 17 1 42.195626 8.825586 64.563291
532 17 1 41.882404 8.503802 63.669788
533 17 1 42.265111 9.269452 64.186815
534 17 1 41.551134 8.640024 63.880127
535 17 1 42.118884 9.362669 64.274391
536 17 1 42.498239 8.505143 63.926914
537 17 1 41.644871 8.118309 63.577453
538 17 1 40.995745 8.169399 64.336416
539 17 1 41.259126 7.636013 63.532594
540 17 1 40.884689 7.506423 64.450746
541 17 1 41.332947 7.392255 63.564163
542 17 1 40.979682 6.567926 64.006527
543 17 1 41.617942 5.963928 63.529233
544 17 1 40.805702 5.464060 63.228570
545 18 1 6.814865 33.359359 20.033028
546 18 1 6.648453 34.125707 20.653527
547 18 1 7.088773 34.972913 20.950780
548 18 1 7.553003 35.455034 20.207778
549 18 1 7.431413 36.417647 20.449835
550 18 1 8.123579 36.525734 19.736235
551 18 1 8.282866 37.507352 19.631101
552 18 1 9.151676 37.183400 20.005567
553 18 1 8.870227 36.611240 20.775904
554 18 1 9.266869 35.764398 20.421596
555 18 1 9.025361 36.726042 20.551655
556 18 1 8.426596 37.331432 21.076043
557 18 1 8.056378 36.487611 21.464508
558 18 1 7.851600 36.870297 22.365407
559 18 1 7.674122 37.842572 22.517667
560 18 1 6.686944 37.698762 22.586944
561 18 1 7.667159 37.894709 22.558960
562 18 1 7.589603 37.667260 23.529656
563 18 1 7.043985 37.160661 24.197233
564 18 1 6.203126 37.197602 23.657241
565 18 1 6.681759 38.004249 23.310498
566 18 1 6.516804 38.748185 23.958070
567 18 1 6.472940 39.526876 23.332197
568 18 1 7.277903 39.711599 23.896034
569 18 1 6.714736 39.039100 23.415838
570 18 1 7.415207 38.334558 23.301990
571 18 1 7.096497 38.065614 22.393094
572 18 1 7.500811 38.461119 23.217779
573 18 1 8.348453 38.592266 23.731884
574 18 1 7.804973 37.942174 24.262929
575 18 1 7.336144 38.342710 25.050185
576 18 1 6.563305 37.909772 25.514172
577 19 1 72.656205 67.523041 64.343641
578 19 1 72.733835 67.549375 63.347006
579 19 1 72.829239 67.600230 64.341145
580 19 1 72.102654 67.165074 63.809437
581 19 1 72.736514 66.773311 63.142546
582 19 1 72.287756 67.403440 63.776229
583 19 1 71.395951 67.221257 64.190345
584 19 1 72.289287 66.912225 64.516613
585 19 1 71.952722 67.436858 63.734638
586 19 1 72.706519 66.820041 63.961192
587 19 1 72.124932 66.019200 64.104056
588 19 1 72.726457 66.638964 63.600012
589 19 1 71.931849 67.161089 63.909824
590 19 1 72.044289 66.285428 63.440170
591 19 1 72.146226 66.536781 62.477657
592 19 1 72.291279 65.609548 62.132404
593 19 1 71.986616 64.897275 62.764740
594 19 1 72.282619 65.147706 61.842966
595 19 1 72.534099 64.632266 62.662160
596 19 1 72.101718 65.309716 63.257230
597 19 1 72.506674 66.066421 63.770464
598 19 1 71.898589 66.540903 63.133990
599 19 1 71.425967 67.354148 62.794489
600 19 1 71.358693 67.897106 61.957429
601 19 1 71.037307 68.829922 62.120420
602 19 1 70.605180 69.456900 62.768621
603 19 1 71.345672 69.739283 63.378483
604 19 1 71.798147 70.528644 63.793424
605 19 1 71.447403 71.429037 63.535990
606 19 1 71.107835 72.368203 63.587563
607 19 1 70.172824 72.067893 63.398967
608 19 1 69.831681 71.510830 62.641800
609 20 1 17.560035 3.137569 87.819275
610 20 1 16.975574 3.602315 88.484419
611 20 1 16.107963 3.533008 87.992028
612 20 1 16.206528 2.622717 88.394093
613 20 1 15.723284 2.339097 87.565820
614 20 1 16.587634 1.987842 87.925708
615 20 1 17.211998 2.378786 87.249445
616 20 1 17.173565 1.419117 87.527936
617 20 1 17.089395 1.751767 86.588650
618 20 1 17.481547 2.263553 85.824259
619 20 1 17.748250 3.226730 85.790237
620 20 1 16.988965 3.679553 86.257610
621 20 1 17.073611 3.029661 85.502312
622 20 1 16.854424 2.140675 85.100242
623 20 1 17.810072 2.280170 85.359621
624 20 1 18.432028 1.636190 84.914133
625 20 1 18.129263 2.214148 84.156309
626 20 1 17.384820 2.779492 84.511541
627 20 1 17.602530 3.744588 84.657118
628 20 1 17.092242 4.586508 84.832549
629 20 1 16.222121 4.541931 85.323366
630 20 1 15.333050 4.346042 84.909624
631 20 1 15.577667 5.188841 85.389054
632 20 1 16.365190 4.738478 85.809746
633 20 1 16.350931 5.663553 85.430230
634 20 1 17.116266 5.891330 84.828250
635 20 1 17.093573 4.899005 84.706690
636 20 1 16.656204 5.795496 84.777492
637 20 1 16.495512 6.780373 84.842262
638 20 1 15.650045 7.259095 84.605593
639 20 1 15.302347 6.533514 84.011760
640 20 1 15.417394 7.503457 83.797344
641 21 1 84.244230 69.002735 49.295200
642 21 1 84.945657 69.684414 49.087079
643 21 1 84.442805 70.456975 48.699408
644 21 1 83.595154 70.983009 48.630296
645 21 1 84.524604 71.335044 48.519869
646 21 1 84.873717 72.045023 49.131466
647 21 1 84.785817 71.249727 48.531651
648 21 1 85.291997 71.156476 47.674279
649 21 1 86.135179 71.680863 47.792867
650 21 1 85.463458 70.958519 47.957211
651 21 1 86.062846 71.319401 47.242719
652 21 1 87.014695 71.037635 47.363510
653 21 1 86.869752 70.161446 47.823168
654 21 1 86.138380 70.374032 48.471166
655 21 1 85.980970 70.188923 47.501137
656 21 1 86.827238 70.717402 47.433746
657 21 1 86.546036 71.468290 48.031319
658 21 1 86.756701 71.874733 47.142261
659 21 1 86.324691 71.193041 46.551785
660 21 1 87.231378 70.771392 46.563247
661 21 1 87.700039 70.561315 47.421282
662 21 1 88.685734 70.490515 47.268336
663 21 1 88.938066 71.196219 46.606286
664 21 1 89.844991 71.360479 46.218336
665 21 1 90.064362 72.093822 45.574843
666 21 1 90.467248 73.003613 45.475024
667 21 1 89.983205 72.180032 45.179358
668 21 1 89.339477 72.789852 45.641671
669 21 1 90.083472 73.334575 46.028644
670 21 1 90.738608 72.594021 46.178230
671 21 1 91.179459 73.490141 46.127057
672 21 1 91.980184 72.954286 46.394824
673 22 1 49.947697 24.853906 34.796226
674 22 1 50.849827 24.644557 34.418954
675 22 1 50.940798 25.627401 34.579396
676 22 1 50.340015 25.039387 35.120967
677 22 1 49.832483 24.436971 35.737007
678 22 1 50.813941 24.247014 35.711408
679 22 1 50.438689 23.573318 36.348056
680 22 1 51.223655 23.696330 35.740853
681 22 1 51.053256 24.679040 35.668432
682 22 1 50.986193 24.033501 36.429208
683 22 1 51.029337 23.316500 37.124944
684 22 1 50.531327 23.346874 36.258306
685 22 1 50.860105 22.830659 37.049145
686 22 1 50.038374 22.451765 37.474818
687 22 1 50.334216 22.961760 38.282520
688 22 1 50.314133 22.485715 37.403329
689 22 1 50.268039 22.445204 38.401444
690 22 1 51.113447 22.724570 38.856680
691 22 1 51.441672 21.808788 38.625136
692 22 1 50.753366 22.325962 38.116444
693 22 1 49.989018 21.687220 38.028233
694 22 1 49.926075 22.438929 37.371748
695 22 1 50.183286 21.486679 37.207240
696 22 1 49.578159 21.924441 36.542270
697 22 1 49.346253 21.329347 35.772801
698 22 1 48.486985 21.826146 35.894662
699 22 1 47.561333 21.925817 36.259675
700 22 1 47.350837 21.020035 36.627439
701 22 1 47.920757 21.189796 37.431412
702 22 1 48.539724 21.836085 36.985106
703 22 1 48.233320 21.087896 36.396609
704 22 1 48.426468 22.069026 36.387752
705 23 1 21.890738 41.453399 92.504089
706 23 1 22.571260 41.010532 93.087834
707 23 1 21.734679 40.471525 93.185828
708 23 1 21.050464 41.144992 93.465635
709 23 1 21.475318 41.699475 92.750060
710 23 1 21.835443 40.977941 93.341413
711 23 1 22.344003 40.150641 93.102788
712 23 1 21.907062 39.252066 93.062222
713 23 1 21.113689 39.549262 92.530965
714 23 1 21.160166 40.373749 91.966996
715 23 1 22.069793 40.345619 92.381469
716 23 1 22.496515 39.659983 92.971225
717 23 1 21.868211 40.144238 93.580102
718 23 1 21.225011 40.620304 94.179814
719 23 1 22.178174 40.577629 93.880384
720 23 1 21.297118 40.508709 93.412420
721 23 1 21.720284 40.650594 94.307294
722 23 1 21.541171 39.985619 95.032364
723 23 1 22.127419 40.580842 94.482798
724 23 1 22.158952 41.362648 93.860073
725 23 1 21.929010 41.742001 92.963849
726 23 1 22.789344 42.158059 92.669364
727 23 1 23.569836 42.765275 92.520634
728 23 1 23.132379 41.906455 92.254065
729 23 1 23.778118 41.959458 93.015781
730 23 1 23.466952 42.908308 92.962303
731 23 1 23.430189 43.026980 91.970050
732 23 1 23.391700 43.174526 90.981744
733 23 1 22.582795 43.092664 90.399532
734 23 1 23.099032 43.468156 89.629789
735 23 1 22.421731 43.746845 88.948910
736 23 1 22.163825 43.347294 89.828594
737 24 1 15.996804 20.822310 78.004334
738 24 1 16.915242 20.630309 78.350178
739 24 1 16.134831 21.210234 78.583942
740 24 1 15.480830 21.936374 78.371803
741 24 1 15.959627 21.493035 77.614041
742 24 1 15.210922 20.839758 77.726606
743 24 1 14.661687 21.260209 77.004413
744 24 1 15.457991 20.726858 77.289787
745 24 1 15.353967 19.775013 77.578179
746 24 1 15.937945 19.375911 76.871294
747 24 1 16.096900 19.011916 75.953557
748 24 1 16.710039 18.229953 76.065785
749 24 1 16.753284 17.605449 75.285962
750 24 1 16.991953 17.650861 76.256000
751 24 1 16.770776 17.485278 77.217074
752 24 1 16.020457 16.908793 77.540626
753 24 1 16.185276 16.709068 78.506516
754 24 1 16.738601 15.935764 78.196948
755 24 1 16.600308 15.778866 77.219064
756 24 1 17.534490 15.535191 77.479688
757 24 1 17.289917 16.189079 78.195659
758 24 1 17.652814 16.799963 78.899312
759 24 1 18.321042 17.539299 78.982092
760 24 1 18.688549 17.917779 78.132567
761 24 1 18.887950 17.724981 77.171803
762 24 1 17.958602 18.094118 77.164688
763 24 1 17.352233 17.872290 76.401073
764 24 1 16.696834 18.571489 76.115460
765 24 1 16.027970 18.230134 75.455083
766 24 1 16.036517 17.900472 76.399144
767 24 1 16.705015 18.016303 77.133782
768 24 1 17.112361 18.446778 77.939238
769 25 1 35.003862 77.535846 48.108951
770 25 1 35.877800 77.300284 48.534090
771 25 1 34.881109 77.314214 48.614168
772 25 1 35.204079 76.857058 49.442840
773 25 1 34.296863 76.637482 49.084029
774 25 1 33.606962 77.296237 48.783897
775 25 1 32.973358 77.971382 48.406107
776 25 1 33.051980 78.881270 48.813442
777 25 1 33.750244 78.576920 48.165524
778 25 1 33.698606 79.422505 47.634186
779 25 1 33.897332 79.607368 46.671724
780 25 1 33.886303 79.775219 47.657474
781 25 1 33.256426 79.794046 48.433941
782 25 1 32.618857 79.746422 47.665021
783 25 1 31.696719 79.619147 48.030346