#Initial configuration
15 atoms
2 atom types
10 bonds
1 bond types
0.0 10.000000 xlo xhi
0.0 10.000000 ylo yhi
0.0 10.000000 zlo zhi
0 0 0 xy xz yz

Atoms # bond

1 1 1 1.568270 9.240860 1.847910
2 1 1 1.319279 0.050982 1.317149
3 1 1 0.739908 0.435879 2.035608
4 1 1 9.150937 1.483118 0.478282
5 1 1 8.701156 2.001496 9.750971
6 2 1 9.522197 2.568303 9.682991
7 1 1 5.752784 0.791200 5.954090
8 1 1 5.625879 9.864900 5.599319
9 3 1 4.958538 0.606112 5.526787
10 4 2 6.434867 7.848518 1.601881
11 0 1 6.554524 8.451162 0.812893
12 0 1 5.612654 8.155191 0.971897
13 5 2 1.459201 5.211896 8.688707
14 0 1 1.346377 5.714246 9.545979
15 0 1 1.554373 5.922352 8.590244
