#Initial configuration
640 atoms
2 atom types
620 bonds
1 bond types
0.0 10.000000 xlo xhi
0.0 10.000000 ylo yhi
0.0 10.000000 zlo zhi
0 0 0 xy xz yz

Atoms # bond

1 1 1 4.213304 2.608159 6.890029
2 1 1 4.061369 2.467500 5.911698
3 1 1 4.984926 2.705071 6.212699
4 1 1 4.104483 2.239782 6.121453
5 1 1 3.281761 2.206389 5.553990
6 1 1 4.265137 2.190145 5.734842
7 1 1 3.715396 1.592301 5.151432
8 1 1 4.422414 1.958250 4.546281
9 1 1 5.144179 2.556137 4.894973
10 1 1 4.643579 3.265384 4.398618
11 1 1 4.863229 4.240862 4.384646
12 1 1 4.498292 3.439994 4.859441
13 1 1 4.506212 4.377535 5.207223
14 1 1 4.277525 3.855549 6.028949
15 1 1 3.925175 3.183774 5.377360
16 1 1 3.809785 2.329724 5.884591
17 1 1 3.898093 2.607211 4.927929
18 1 1 3.428381 3.429436 4.606501
19 1 1 3.002349 2.554214 4.835592
20 1 1 2.055356 2.857294 4.729067
21 1 1 2.083870 3.434692 3.913103
22 1 1 1.565683 3.084403 4.693346
23 1 1 2.416989 3.558520 4.468642
24 1 1 2.698262 4.464961 4.783683
25 1 1 1.843325 3.997599 4.558616
26 1 1 1.491207 4.016696 5.494377
27 1 1 1.648392 4.709038 6.198619
28 1 1 2.120236 4.752093 7.079249
29 1 1 2.632095 5.276910 6.399125
30 1 1 2.139615 6.144803 6.334131
31 1 1 2.395751 6.643029 5.505780
32 1 1 1.632642 7.122313 5.072247
33 2 1 1.057574 3.718904 1.412098
34 2 1 0.918530 3.313744 2.315708
35 2 1 1.578375 2.623262 2.019331
36 2 1 2.118593 2.913028 2.809395
37 2 1 1.415956 3.623822 2.842168
38 2 1 0.997149 2.780796 3.179671
39 2 1 0.239812 3.273793 3.607918
40 2 1 9.735719 3.856175 2.970171
41 2 1 0.594729 3.366586 3.119853
42 2 1 0.264788 3.872040 2.322574
43 2 1 0.515441 4.118898 3.258648
44 2 1 1.418501 4.498822 3.458999
45 2 1 1.389410 5.398011 3.022407
46 2 1 1.456666 5.303215 2.029184
47 2 1 1.152720 6.254004 1.969035
48 2 1 0.434709 5.588910 2.174243
49 2 1 1.200377 5.848772 2.762652
50 2 1 1.889902 5.976703 2.049778
51 2 1 1.653420 6.944022 1.958281
52 2 1 1.616415 5.968635 1.740906
53 2 1 1.080223 6.605365 2.295048
54 2 1 1.861377 6.078621 1.959879
55 2 1 2.804413 6.389680 1.841875
56 2 1 2.825940 5.433948 1.548427
57 2 1 2.970272 4.446106 1.490654
58 2 1 2.526955 5.327913 1.651550
59 2 1 2.421467 5.217252 0.663306
60 2 1 1.671413 5.849814 0.470216
61 2 1 1.444968 6.458855 1.230342
62 2 1 1.882640 6.089334 0.410649
63 2 1 2.261723 6.980699 0.659177
64 2 1 1.563920 6.299617 0.880986
65 3 1 6.500531 7.612256 3.177127
66 3 1 6.227451 7.958122 2.279462
67 3 1 6.486263 7.895202 3.243338
68 3 1 5.992786 7.406087 2.524139
69 3 1 6.921707 7.691111 2.287777
70 3 1 6.409342 8.282324 2.910632
71 3 1 7.382612 8.414946 3.098136
72 3 1 6.715895 8.501545 3.838399
73 3 1 5.717207 8.450341 3.838924
74 3 1 5.288157 8.015379 4.630583
75 3 1 5.083346 8.510543 5.474896
76 3 1 5.296077 9.358268 4.988988
77 3 1 4.315121 9.364652 5.183110
78 3 1 5.033402 8.784591 5.567298
79 3 1 5.141178 9.307842 6.412633
80 3 1 5.951015 8.721482 6.394003
81 3 1 6.433631 8.503848 5.545642
82 3 1 7.145556 8.889327 6.132642
83 3 1 6.305671 8.757494 5.606132
84 3 1 6.061393 9.684433 5.321331
85 3 1 5.824151 8.962844 4.670927
86 3 1 5.387450 9.727892 5.144206
87 3 1 5.858805 8.916636 4.798246
88 3 1 6.147520 8.061213 5.228241
89 3 1 6.064512 7.746638 6.173837
90 3 1 6.189376 8.531342 6.781001
91 3 1 6.466163 7.754812 6.214970
92 3 1 6.286125 8.735154 6.295693
93 3 1 5.997412 9.104917 7.178823
94 3 1 6.983804 9.236463 7.080207
95 3 1 7.641728 9.913422 6.750265
96 3 1 8.621926 9.830091 6.570631
97 4 1 5.535889 8.493765 7.072203
98 4 1 5.248173 8.584450 8.025616
99 4 1 5.483914 8.687173 7.059244
100 4 1 6.298920 8.521796 6.503891
101 4 1 6.925940 8.450733 7.279646
102 4 1 6.961524 7.489263 7.552242
103 4 1 7.796051 7.661036 8.075748
104 4 1 8.667904 8.132879 7.944457
105 4 1 9.536600 7.644072 8.024673
106 4 1 9.831586 7.376152 7.107502
107 4 1 9.673541 6.420995 6.857109
108 4 1 0.130962 5.894903 6.140176
109 4 1 0.638929 5.129231 5.745568
110 4 1 9.709481 5.471987 5.882119
111 4 1 9.626314 5.299670 4.900594
112 4 1 0.067240 6.179246 4.721901
113 4 1 0.351102 7.079062 5.053192
114 4 1 9.473420 6.854171 4.629991
115 4 1 9.190867 6.418864 3.775198
116 4 1 9.173656 6.857421 2.876660
117 4 1 0.122490 6.867544 2.561046
118 4 1 0.139559 6.211487 1.806527
119 4 1 0.748912 5.983839 1.047011
120 4 1 1.356212 5.240931 1.328569
121 4 1 2.062274 5.344644 2.029084
122 4 1 2.176959 4.382893 2.277844
123 4 1 2.796735 4.325562 3.060526
124 4 1 3.650960 3.974236 3.443761
125 4 1 3.780142 4.854614 2.987420
126 4 1 3.815627 5.588912 2.309520
127 4 1 3.043076 5.941126 2.837829
128 4 1 3.274496 6.409943 1.985388
129 5 1 3.624814 6.691090 4.179150
130 5 1 3.887092 6.969344 3.255145
131 5 1 4.522505 6.486523 2.652539
132 5 1 4.718624 5.561613 2.326841
133 5 1 5.406986 6.153116 1.906981
134 5 1 6.181436 5.641921 1.534280
135 5 1 6.136045 5.642606 0.535311
136 5 1 5.380470 5.622877 1.190076
137 5 1 4.878794 6.297464 1.731605
138 5 1 5.322230 5.585134 2.275617
139 5 1 5.311167 4.880303 2.984907
140 5 1 5.828574 5.719890 2.819424
141 5 1 4.947295 6.135182 3.044988
142 5 1 4.875057 6.905960 2.411993
143 5 1 5.038607 6.230648 1.692824
144 5 1 4.296797 6.633658 2.228828
145 5 1 3.701867 5.987608 1.750625
146 5 1 3.177532 6.238501 2.564336
147 5 1 3.351254 7.206623 2.744780
148 5 1 2.866033 6.456596 2.295314
149 5 1 3.372590 7.224905 2.686596
150 5 1 2.741034 6.622137 3.174251
151 5 1 3.201147 6.038724 2.504979
152 5 1 3.107699 7.034027 2.479705
153 5 1 2.142604 6.966958 2.226537
154 5 1 3.122014 6.777614 2.296576
155 5 1 3.657560 7.027061 1.489752
156 5 1 4.328929 6.388386 1.113776
157 5 1 5.256819 6.748446 1.210612
158 5 1 5.062119 7.471019 1.873922
159 5 1 4.439481 7.616759 2.642740
160 5 1 4.147362 8.330687 3.279116
161 6 1 8.805977 7.731062 8.278340
162 6 1 9.485271 8.305179 8.735450
163 6 1 8.824122 7.831518 9.317281
164 6 1 8.757034 8.068189 0.286551
165 6 1 9.321672 8.893500 0.279703
166 6 1 9.316019 8.412694 1.156512
167 6 1 8.513040 7.951074 1.533515
168 6 1 7.816678 7.479177 0.992781
169 6 1 7.332227 6.626291 1.187441
170 6 1 7.948324 7.207324 0.655629
171 6 1 8.286042 7.986932 1.183035
172 6 1 7.894895 7.424803 1.911742
173 6 1 8.606334 7.039047 1.324335
174 6 1 8.745011 6.119001 0.957887
175 6 1 8.521380 5.596603 0.135032
176 6 1 7.691636 5.046228 0.042237
177 6 1 7.939253 5.386343 9.135039
178 6 1 7.933645 4.553652 8.581330
179 6 1 7.637037 5.161353 9.318027
180 6 1 8.545484 5.578977 9.300312
181 6 1 8.193013 5.290935 8.409921
182 6 1 7.960153 4.359287 8.130979
183 6 1 7.279684 4.965717 8.542324
184 6 1 7.795340 5.424021 9.266241
185 6 1 8.619457 5.532019 9.822270
186 6 1 7.658244 5.259569 9.865150
187 6 1 7.239540 5.129837 0.763959
188 6 1 7.737561 4.462967 0.209648
189 6 1 6.775841 4.323659 9.973665
190 6 1 6.667187 4.118983 9.000884
191 6 1 6.895542 3.587918 9.816864
192 6 1 7.667852 3.989927 0.308724
193 7 1 6.194484 6.384299 3.917168
194 7 1 7.037733 6.920322 3.877030
195 7 1 6.117862 6.584088 4.078979
196 7 1 6.351554 7.504706 3.766170
197 7 1 7.302175 7.688320 3.515961
198 7 1 7.720809 7.953487 2.647381
199 7 1 7.481077 6.988926 2.537148
200 7 1 8.230062 7.650833 2.507124
201 7 1 8.369908 8.501603 3.013714
202 7 1 7.514374 7.985646 2.970689
203 7 1 7.405419 7.697136 2.019432
204 7 1 7.646655 8.277163 1.241374
205 7 1 7.574564 9.171431 1.683061
206 7 1 8.315168 8.500279 1.715637
207 7 1 8.282671 9.174586 2.453373
208 7 1 7.680203 9.333273 1.671164
209 7 1 7.656093 8.523438 2.257326
210 7 1 6.699992 8.805730 2.178696
211 7 1 7.401594 9.293885 2.697790
212 7 1 6.854585 0.071418 2.387589
213 7 1 7.727621 9.766150 2.007299
214 7 1 7.122944 9.520398 2.764908
215 7 1 7.121369 9.976454 3.654858
216 7 1 7.235756 9.719117 4.614385
217 7 1 7.004879 0.424431 3.944141
218 7 1 6.836529 1.018952 4.730400
219 7 1 6.126808 0.620591 5.311438
220 7 1 6.825504 0.301562 4.671090
221 7 1 6.015588 9.751789 4.466675
222 7 1 5.272572 0.256830 4.905834
223 7 1 4.569664 0.536554 4.251867
224 7 1 4.949281 1.038033 3.474428
225 8 1 9.762821 4.939266 7.357975
226 8 1 9.656002 4.099800 7.890786
227 8 1 0.122608 3.585368 7.171315
228 8 1 9.142444 3.516492 6.985481
229 8 1 8.931099 4.327333 7.531256
230 8 1 7.983301 4.551153 7.304139
231 8 1 8.125181 4.820282 8.256735
232 8 1 8.135441 5.572625 8.915426
233 8 1 7.147577 5.648381 9.051022
234 8 1 7.386786 5.490237 8.093019
235 8 1 7.803929 5.593775 7.190095
236 8 1 7.306510 5.496158 8.052096
237 8 1 7.051716 5.469238 9.018716
238 8 1 6.163171 5.574090 9.465364
239 8 1 6.483785 5.131000 8.628179
240 8 1 6.748709 5.190856 7.665769
241 8 1 6.662593 5.607795 8.570615
242 8 1 6.449869 5.002405 7.803640
243 8 1 6.088675 4.082256 7.954852
244 8 1 7.084850 4.012786 7.901850
245 8 1 6.092009 4.002219 7.782869
246 8 1 6.731720 4.720355 7.508916
247 8 1 6.676799 3.802472 7.901948
248 8 1 6.373997 4.714304 7.624687
249 8 1 5.808573 4.017820 7.182866
250 8 1 6.201108 4.898679 6.918287
251 8 1 6.077020 5.725379 7.467076
252 8 1 6.607266 6.570262 7.537870
253 8 1 6.272610 7.117732 8.304865
254 8 1 6.352501 7.794333 9.036869
255 8 1 6.049556 8.606753 9.535062
256 8 1 5.938898 8.096223 8.682353
257 9 1 4.389283 0.235673 6.213937
258 9 1 5.200584 9.659211 6.116561
259 9 1 5.934407 9.937895 5.497013
260 9 1 6.325013 0.790968 5.842979
261 9 1 6.816347 0.472704 5.032239
262 9 1 6.938616 0.971086 5.890532
263 9 1 6.171716 0.508260 5.445945
264 9 1 6.025871 1.303286 4.857165
265 9 1 6.835571 0.985121 5.350275
266 9 1 6.434646 0.633989 4.504127
267 9 1 6.121138 0.834720 5.432255
268 9 1 5.213246 0.557329 5.746558
269 9 1 4.547050 0.249865 5.067110
270 9 1 4.661731 9.515962 5.736614
271 9 1 5.088517 9.881892 6.563626
272 9 1 4.204767 9.731959 6.120336
273 9 1 4.567640 0.663798 6.119768
274 9 1 5.434287 0.265641 5.819113
275 9 1 5.251555 1.149134 6.250447
276 9 1 4.675940 0.527679 5.718976
277 9 1 4.466874 9.603956 6.039955
278 9 1 4.652588 0.298044 6.735478
279 9 1 5.010964 0.147994 5.814039
280 9 1 4.999112 9.221728 5.437353
281 9 1 5.920388 9.228202 5.048498
282 9 1 6.670646 8.905371 5.625466
283 9 1 6.872860 8.362194 6.440370
284 9 1 7.631656 8.885688 6.827906
285 9 1 8.095360 8.866824 5.942117
286 9 1 7.764145 9.556622 5.298319
287 9 1 7.942678 9.177219 4.390476
288 9 1 7.577168 0.061619 4.100237
289 10 1 6.710173 9.875498 8.617084
290 10 1 6.173932 9.184663 9.102050
291 10 1 6.179484 0.153849 9.348318
292 10 1 5.287299 9.713759 9.246698
293 10 1 6.215663 0.012526 9.467783
294 10 1 6.082902 9.497451 0.314584
295 10 1 6.039403 0.452083 0.609177
296 10 1 5.131148 0.306570 1.001477
297 10 1 5.534227 9.656237 0.357587
298 10 1 5.485368 0.472440 9.781892
299 10 1 5.379492 9.502992 0.003162
300 10 1 5.207191 9.304998 0.968103
301 10 1 5.601350 8.429266 0.689298
302 10 1 6.116616 7.836541 1.308312
303 10 1 5.833358 7.006842 1.789316
304 10 1 5.995951 6.352271 2.527625
305 10 1 6.682565 6.151456 1.828887
306 10 1 7.042134 6.000902 2.749779
307 10 1 6.983407 6.907969 3.166648
308 10 1 6.894880 7.903490 3.133460
309 10 1 6.917643 8.573193 3.875740
310 10 1 7.380066 7.923612 3.272242
311 10 1 7.667086 8.854006 3.044238
312 10 1 8.426466 9.266730 2.541246
313 10 1 9.040341 8.631280 3.009606
314 10 1 9.097943 9.532312 3.439516
315 10 1 9.956210 9.026458 3.526062
316 10 1 9.901544 9.835236 2.940494
317 10 1 9.958360 0.474965 3.706991
318 10 1 0.882335 0.666565 3.375993
319 10 1 0.895043 1.274277 4.170049
320 10 1 0.429180 0.979695 5.004431
321 11 2 9.761398 7.124469 2.321953
322 11 2 9.164643 7.894416 2.547926
323 11 2 9.545449 7.703380 3.452631
324 11 2 8.627978 8.043595 3.246475
325 11 2 8.427798 8.725716 2.543168
326 11 2 8.815669 9.311057 3.255159
327 11 2 9.161852 9.670964 4.121545
328 11 2 9.533556 0.514140 4.509992
329 11 2 0.105066 1.264878 4.178679
330 11 2 9.891221 2.091076 3.657462
331 11 2 9.386239 1.306822 4.017931
332 11 2 9.553775 2.269105 4.232271
333 11 2 9.375207 3.248272 4.135596
334 11 2 0.242816 2.887760 3.793125
335 11 2 1.001993 3.504691 3.585649
336 11 2 1.888203 3.047940 3.508123
337 11 2 2.684156 3.508324 3.115051
338 11 2 2.404840 2.712571 3.652414
339 11 2 1.795678 3.272526 4.213995
340 11 2 1.903058 3.970152 3.505626
341 11 2 2.644976 3.701197 2.891442
342 11 2 2.525677 2.719988 2.739794
343 11 2 1.827445 2.432009 2.084400
344 11 2 2.343020 2.820180 2.848276
345 11 2 1.716792 3.147825 3.555727
346 11 2 1.215544 2.891795 2.729168
347 11 2 1.049825 3.856939 2.526598
348 11 2 1.289975 3.164866 3.207306
349 11 2 1.372945 2.170576 3.140207
350 11 2 0.809863 1.506568 3.632175
351 11 2 0.882879 2.499297 3.536475
352 11 2 0.282062 2.306120 4.312168
353 12 2 9.041955 7.666383 8.993261
354 12 2 9.398145 8.411774 8.429772
355 12 2 8.466308 8.213014 8.126170
356 12 2 8.767228 9.011145 8.648122
357 12 2 7.775382 8.890676 8.606528
358 12 2 6.881165 9.241024 8.885152
359 12 2 7.671440 9.404250 9.475764
360 12 2 7.030737 9.530977 0.233023
361 12 2 6.762122 9.143202 9.351277
362 12 2 7.139826 8.286497 8.999999
363 12 2 7.794471 7.534207 8.925845
364 12 2 7.156742 8.088699 9.460486
365 12 2 6.679314 7.266776 9.771138
366 12 2 5.745952 6.972779 9.977054
367 12 2 4.903464 6.586706 9.601338
368 12 2 4.398525 7.429261 9.413887
369 12 2 3.702458 7.996480 8.973712
370 12 2 3.707922 8.920666 9.355614
371 12 2 3.680486 8.572774 8.418481
372 12 2 3.739544 9.400046 7.859792
373 12 2 4.190855 8.513865 7.964680
374 12 2 4.124855 7.796738 8.658490
375 12 2 3.369361 7.480216 9.232112
376 12 2 3.850646 6.887231 8.586563
377 12 2 3.506589 7.605650 9.191129
378 12 2 3.673039 8.046166 0.073307
379 12 2 2.901493 7.737633 9.516959
380 12 2 3.128711 8.481902 8.888918
381 12 2 3.379611 8.630870 9.845400
382 12 2 2.807453 9.384672 0.168538
383 12 2 3.147163 9.520848 1.099158
384 12 2 2.869418 8.734522 0.547298
385 13 2 8.169302 4.287826 4.491901
386 13 2 7.646278 4.133401 3.653690
387 13 2 7.364971 3.188374 3.486980
388 13 2 7.470372 2.249395 3.159552
389 13 2 8.029245 2.899910 2.645264
390 13 2 7.166773 2.615567 2.226586
391 13 2 6.580124 3.217023 1.684281
392 13 2 7.486875 2.897482 1.959410
393 13 2 8.022003 2.145887 2.345083
394 13 2 7.334206 2.143241 1.619186
395 13 2 7.897406 2.072390 2.442463
396 13 2 7.010677 2.276715 2.027777
397 13 2 6.665482 2.001200 2.924957
398 13 2 5.992347 2.203977 2.213781
399 13 2 5.146853 2.710186 2.043804
400 13 2 5.489886 3.642418 2.159004
401 13 2 5.751545 4.582500 1.940418
402 13 2 6.079597 3.712746 1.571761
403 13 2 6.817671 3.459114 2.196996
404 13 2 7.494214 3.534624 1.464474
405 13 2 6.717660 3.451601 2.089031
406 13 2 7.321707 4.091182 1.613570
407 13 2 6.715939 4.737859 2.077093
408 13 2 7.631412 5.027477 2.356432
409 13 2 6.716101 4.838513 2.712096
410 13 2 7.668424 4.940848 2.999513
411 13 2 8.574872 5.320485 2.814507
412 13 2 9.112984 5.155045 1.988029
413 13 2 9.715369 5.603867 1.327960
414 13 2 9.616470 5.117949 2.196351
415 13 2 0.574728 4.847017 2.287662
416 13 2 0.679894 4.086693 1.646688
417 14 2 6.691843 7.268845 9.144965
418 14 2 6.672685 6.592133 8.408967
419 14 2 7.402094 7.087338 7.937020
420 14 2 7.379730 7.696056 7.143948
421 14 2 7.940423 8.449245 7.487939
422 14 2 7.103791 7.925469 7.327610
423 14 2 7.813575 7.225070 7.402765
424 14 2 7.753491 6.489017 8.077017
425 14 2 7.244536 6.225076 7.257688
426 14 2 7.417814 5.335280 7.679871
427 14 2 6.950310 4.667261 8.258828
428 14 2 6.876605 5.179734 9.114362
429 14 2 7.172935 4.339150 8.660924
430 14 2 8.105904 4.288831 8.304501
431 14 2 7.296565 3.856218 7.907240
432 14 2 6.440315 4.332990 8.106045
433 14 2 5.814893 4.983939 7.675795
434 14 2 5.936259 5.941662 7.936631
435 14 2 5.847063 6.937564 7.951632
436 14 2 5.300072 7.523880 7.354109
437 14 2 5.076162 7.061804 8.212218
438 14 2 5.217521 6.129663 7.878854
439 14 2 5.809420 5.330076 7.777291
440 14 2 6.196713 5.289892 6.856210
441 14 2 5.324547 4.845657 7.061104
442 14 2 5.801515 4.091074 6.610432
443 14 2 5.365646 4.955211 6.861998
444 14 2 4.966563 5.799885 7.218729
445 14 2 4.848212 5.010187 6.616758
446 14 2 5.179506 4.798850 5.697203
447 14 2 5.353841 5.783284 5.719516
448 14 2 4.394679 5.868156 5.449691
449 15 2 8.633977 9.951251 6.727473
450 15 2 7.920137 9.611626 6.115029
451 15 2 7.659978 9.277850 5.208988
452 15 2 7.906804 8.801699 6.053000
453 15 2 8.903031 8.868896 5.998063
454 15 2 9.545946 9.107267 6.725963
455 15 2 9.636690 8.899437 5.752017
456 15 2 8.850851 9.423825 6.079848
457 15 2 9.341607 9.729853 6.895634
458 15 2 9.868088 0.578850 6.940602
459 15 2 0.065855 0.189743 6.040888
460 15 2 9.611060 0.938174 6.523602
461 15 2 0.302913 0.882511 5.803713
462 15 2 9.570998 0.779082 5.130212
463 15 2 9.568757 1.275453 4.262104
464 15 2 9.433476 2.170564 3.837281
465 15 2 9.359770 2.695070 4.685491
466 15 2 8.932306 1.939873 5.182435
467 15 2 8.303646 1.804278 4.416668
468 15 2 7.660497 1.403403 5.069093
469 15 2 8.010892 2.245040 4.658156
470 15 2 8.482720 2.428884 3.795845
471 15 2 7.500323 2.612223 3.760028
472 15 2 7.895728 1.704082 3.622428
473 15 2 8.582245 1.902506 4.321943
474 15 2 8.806483 1.291390 5.081057
475 15 2 8.154809 1.788302 5.654117
476 15 2 7.267476 1.466430 5.323906
477 15 2 6.717202 0.632885 5.274906
478 15 2 5.850187 0.136883 5.322515
479 15 2 6.377149 0.466348 4.539085
480 15 2 6.110800 0.738758 3.614503
481 16 2 4.009516 4.021568 6.438720
482 16 2 4.735004 4.582033 6.039286
483 16 2 5.465574 4.382977 5.386106
484 16 2 6.267513 4.077623 4.872635
485 16 2 7.132512 4.439110 5.220632
486 16 2 6.567212 4.990029 5.834573
487 16 2 6.875731 4.282467 5.198828
488 16 2 6.922362 4.244099 6.197003
489 16 2 6.952818 4.141001 5.202799
490 16 2 6.371846 4.949623 5.110045
491 16 2 6.940017 4.147345 5.293163
492 16 2 6.982124 4.357235 6.269981
493 16 2 6.940919 3.371990 6.436094
494 16 2 6.555911 4.047076 5.806787
495 16 2 5.575090 3.892785 5.925883
496 16 2 6.504425 3.642445 5.654468
497 16 2 5.836326 4.339732 5.914149
498 16 2 6.821333 4.511409 5.897177
499 16 2 7.024648 5.254786 5.259955
500 16 2 7.593273 5.040544 6.054163
501 16 2 6.732840 4.603530 6.316219
502 16 2 6.476295 5.199038 7.077504
503 16 2 5.800130 4.673428 7.593774
504 16 2 5.080652 5.341366 7.784062
505 16 2 4.237087 5.860815 7.920338
506 16 2 4.310405 5.849738 6.923091
507 16 2 4.902092 5.514091 7.656063
508 16 2 4.860682 6.019218 6.794012
509 16 2 4.927062 6.932019 7.196987
510 16 2 4.632244 7.613906 7.866399
511 16 2 4.792986 7.410311 8.832169
512 16 2 5.363915 7.913132 9.481176
513 17 2 2.005887 9.840925 1.586743
514 17 2 1.300833 0.404918 1.156847
515 17 2 1.160174 0.305169 2.141867
516 17 2 0.410636 0.962084 2.060281
517 17 2 1.172717 1.154286 1.441984
518 17 2 1.748059 1.899979 1.778026
519 17 2 2.221731 2.288731 0.987768
520 17 2 2.208698 2.096649 1.969061
521 17 2 1.594272 2.822906 1.660789
522 17 2 1.889814 2.029102 1.129254
523 17 2 2.347954 1.312453 0.603399
524 17 2 1.835902 1.907977 9.984405
525 17 2 1.544067 2.831407 0.233619
526 17 2 2.237115 2.630304 9.541346
527 17 2 2.486880 1.735970 9.912539
528 17 2 2.549795 1.197940 0.753113
529 17 2 2.217383 0.794305 1.605511
530 17 2 2.196935 0.070120 2.294813
531 17 2 2.133206 0.566154 1.428852
532 17 2 1.485211 9.863590 1.722972
533 17 2 1.753449 0.105942 2.655342
534 17 2 1.453915 0.687931 1.899321
535 17 2 0.717962 1.055565 1.330798
536 17 2 9.876281 1.142277 1.863765
537 17 2 9.878361 1.658291 1.007188
538 17 2 9.288844 2.150246 0.366524
539 17 2 0.237099 1.875588 0.525824
540 17 2 9.431346 1.958857 1.112193
541 17 2 0.201079 1.805060 1.731756
542 17 2 1.094573 1.497292 1.404727
543 17 2 1.952992 1.655495 0.916784
544 17 2 1.698651 2.281421 0.179541
545 18 2 4.248027 2.653925 8.175465
546 18 2 4.969633 3.333582 8.307187
547 18 2 4.146885 3.278541 7.741452
548 18 2 3.686402 4.143869 7.543558
549 18 2 3.464974 4.942375 6.983773
550 18 2 3.957772 5.372700 6.227486
551 18 2 3.042899 5.551136 5.865315
552 18 2 3.683236 4.784705 5.814802
553 18 2 4.520945 4.769432 6.360706
554 18 2 3.756553 5.218356 6.823494
555 18 2 4.633988 5.513825 6.445596
556 18 2 4.260496 5.135273 5.598718
557 18 2 3.880183 5.806746 6.234711
558 18 2 4.101493 6.781856 6.248203
559 18 2 4.743283 7.303698 5.686254
560 18 2 3.808869 7.251915 5.333850
561 18 2 3.292602 7.723365 6.048835
562 18 2 3.386924 8.353178 5.277836
563 18 2 2.784713 9.104570 5.008109
564 18 2 3.125261 0.016171 5.238349
565 18 2 3.708758 9.554378 5.906390
566 18 2 4.579304 9.132253 5.653485
567 18 2 4.025666 8.780016 6.408081
568 18 2 3.764254 8.019172 7.002034
569 18 2 3.855982 8.043622 6.006550
570 18 2 3.272151 7.371884 5.550578
571 18 2 4.110002 6.895978 5.818011
572 18 2 3.730964 6.440335 5.012579
573 18 2 4.090577 6.424700 5.945550
574 18 2 4.453988 5.730155 6.566468
575 18 2 4.354083 6.725068 6.579365
576 18 2 3.497420 6.531868 6.101031
577 19 2 5.040269 0.468647 7.682149
578 19 2 5.235554 0.225636 6.731987
579 19 2 5.151778 1.094394 6.243887
580 19 2 4.861016 1.930223 5.778218
581 19 2 3.976035 2.368874 5.622034
582 19 2 4.952614 2.250145 5.442602
583 19 2 4.290577 2.493877 4.733870
584 19 2 3.945361 3.381854 4.430025
585 19 2 3.060597 3.732447 4.122978
586 19 2 3.841827 3.945074 3.536063
587 19 2 3.079019 4.219718 2.950663
588 19 2 2.832295 3.463299 2.344893
589 19 2 2.627981 4.069367 1.576169
590 19 2 3.614335 4.055504 1.412118
591 19 2 3.641009 3.056114 1.434653
592 19 2 2.734085 3.061911 1.855909
593 19 2 3.416887 3.574846 2.376177
594 19 2 3.954971 3.570245 3.219056
595 19 2 4.750448 3.235917 2.713644
596 19 2 5.636677 3.260983 2.251075
597 19 2 6.025116 2.927813 1.391940
598 19 2 5.811262 3.894172 1.534833
599 19 2 5.711307 4.781144 1.083956
600 19 2 5.797959 5.086923 2.032107
601 19 2 6.280281 5.676400 2.680090
602 19 2 6.602647 4.730177 2.707310
603 19 2 5.627850 4.952531 2.689136
604 19 2 5.289046 4.074285 3.026622
605 19 2 5.639401 4.094903 3.963012
606 19 2 5.838864 4.117388 2.983365
607 19 2 6.377363 3.488324 3.543987
608 19 2 5.537726 3.107421 3.156787
609 20 2 9.531512 1.095354 9.965675
610 20 2 9.046367 1.703307 0.594187
611 20 2 9.650045 1.365302 9.872159
612 20 2 9.170725 0.504779 0.044653
613 20 2 8.840265 0.549922 0.987393
614 20 2 9.261266 0.548145 1.894451
615 20 2 9.833027 9.771394 1.630351
616 20 2 0.562654 9.881386 0.955410
617 20 2 1.327184 0.515349 0.838856
618 20 2 1.102991 0.307296 9.886778
619 20 2 1.507584 9.585354 0.448119
620 20 2 2.208517 9.971906 1.047511
621 20 2 1.663812 0.808487 1.106064
622 20 2 2.643528 0.673605 0.957867
623 20 2 1.889936 1.294717 0.742648
624 20 2 2.502988 1.871520 0.202773
625 20 2 2.224094 2.742953 9.799261
626 20 2 1.533314 2.505589 9.116267
627 20 2 0.892018 2.629412 9.873504
628 20 2 1.001741 3.339291 9.177779
629 20 2 0.933768 3.377338 0.174741
630 20 2 1.466711 2.924567 0.889562
631 20 2 0.598473 2.506203 0.622854
632 20 2 9.710985 2.480984 0.162714
633 20 2 0.050156 1.997802 9.355559
634 20 2 0.632671 2.392731 8.645132
635 20 2 9.699892 2.033707 8.677169
636 20 2 0.390092 2.723774 8.459379
637 20 2 0.150511 1.838035 8.061802
638 20 2 0.016672 1.130073 7.368349
639 20 2 9.373391 0.725637 6.718255
640 20 2 0.056012 0.045602 6.450708
