#Initial configuration
6400 atoms
2 atom types
6200 bonds
1 bond types
0.0 18.566355 xlo xhi
0.0 18.566355 ylo yhi
0.0 18.566355 zlo zhi
0 0 0 xy xz yz

Atoms # bond

1 1 1 0.311027 11.057536 4.791690
2 1 1 0.408822 10.955526 5.781655
3 1 1 0.701868 10.148880 6.294926
4 1 1 18.470130 10.315467 6.873973
5 1 1 0.490863 9.557952 6.588497
6 1 1 0.140522 9.477366 5.655348
7 1 1 0.613200 8.674792 6.019285
8 1 1 0.155310 9.364101 6.580702
9 1 1 0.378053 8.652763 7.247323
10 1 1 0.021956 7.828567 7.687659
11 1 1 0.519171 7.784681 8.554175
12 1 1 0.475048 8.446636 7.805932
13 1 1 0.034900 9.093498 8.428700
14 1 1 17.996309 8.560990 7.836691
15 1 1 17.716149 7.901522 8.534267
16 1 1 16.961024 7.734615 7.900288
17 1 1 16.220030 7.133985 8.200571
18 1 1 17.169022 7.431673 8.096669
19 1 1 16.340453 7.262673 7.562897
20 1 1 15.763480 7.916475 7.073361
21 1 1 16.655530 8.320053 7.276758
22 1 1 15.810111 8.847709 7.194018
23 1 1 15.444400 9.643741 6.711744
24 1 1 14.857806 9.701754 5.903944
25 1 1 15.698590 9.305808 6.273145
26 1 1 15.570941 8.641311 7.009452
27 1 1 15.138039 9.542727 7.016073
28 1 1 15.784694 9.319554 6.286668
29 1 1 16.261678 10.081582 5.848719
30 1 1 16.775468 9.773775 5.047923
31 1 1 17.730728 10.060765 5.119441
32 1 1 16.832793 9.629573 5.031200
33 2 1 9.495244 13.151171 15.072872
34 2 1 9.261884 13.675288 14.253821
35 2 1 9.019068 13.211585 15.105889
36 2 1 9.854796 13.057991 15.633116
37 2 1 9.460904 12.765646 16.504543
38 2 1 10.432191 12.663226 16.289808
39 2 1 10.921720 12.931590 17.119472
40 2 1 10.611777 13.761903 17.582630
41 2 1 10.806024 12.802221 17.379460
42 2 1 11.342846 12.275582 18.038606
43 2 1 11.679124 13.026897 17.470766
44 2 1 11.900188 13.968707 17.723993
45 2 1 12.793396 14.113591 17.298330
46 2 1 13.354768 13.536678 17.891654
47 2 1 13.679215 13.784073 0.238277
48 2 1 13.590129 13.368282 17.899546
49 2 1 13.090402 13.655687 17.082434
50 2 1 12.703613 12.738149 17.174728
51 2 1 11.907229 12.158593 17.347610
52 2 1 11.996861 11.989893 16.366026
53 2 1 11.901861 12.341836 17.297214
54 2 1 11.740802 11.539586 16.722362
55 2 1 11.904691 10.731456 17.288106
56 2 1 11.847059 9.893213 17.830348
57 2 1 11.790825 10.828047 18.180951
58 2 1 10.833151 10.541411 18.207408
59 2 1 10.904552 10.068891 0.519475
60 2 1 10.945494 11.067737 0.544595
61 2 1 10.984738 11.809766 18.441733
62 2 1 11.768078 11.328616 18.048191
63 2 1 12.257648 10.597160 18.522841
64 2 1 12.210814 11.079058 17.647866
65 3 1 11.462146 14.463269 8.559304
66 3 1 11.907253 15.289723 8.904055
67 3 1 12.369698 14.475803 9.255734
68 3 1 11.526369 14.824897 9.664305
69 3 1 11.965314 15.011625 8.785408
70 3 1 11.289863 15.526996 8.258000
71 3 1 11.005947 16.305255 7.697908
72 3 1 10.458416 15.727164 7.092911
73 3 1 10.975750 15.394340 7.881323
74 3 1 10.280075 14.726335 7.617115
75 3 1 11.088012 14.935194 8.168129
76 3 1 10.264823 15.244472 8.644266
77 3 1 10.826871 14.508329 9.021354
78 3 1 9.873004 14.236524 8.893838
79 3 1 9.639008 13.356661 9.307465
80 3 1 10.323520 12.827228 9.808608
81 3 1 11.321152 12.896009 9.809277
82 3 1 11.070022 13.030700 10.767813
83 3 1 11.440499 13.836616 11.229601
84 3 1 10.611464 14.285371 10.895954
85 3 1 9.954099 13.550142 10.730697
86 3 1 10.739418 13.420228 10.125390
87 3 1 11.213447 14.071856 10.717571
88 3 1 11.482700 13.108884 10.731271
89 3 1 11.608462 12.808010 9.785936
90 3 1 12.594523 12.864331 9.629375
91 3 1 12.007880 12.970626 8.826536
92 3 1 11.907709 13.452695 7.956147
93 3 1 11.657170 14.408969 7.805251
94 3 1 12.284317 15.165622 7.620418
95 3 1 12.141516 14.531234 8.380128
96 3 1 12.636590 14.486992 9.247851
97 4 1 14.164556 15.928790 15.629372
98 4 1 13.567550 15.785022 16.418622
99 4 1 13.872096 14.838836 16.528091
100 4 1 14.819121 14.639016 16.276664
101 4 1 14.777614 15.529422 16.729935
102 4 1 13.778510 15.547698 16.691771
103 4 1 14.096527 16.030809 15.876008
104 4 1 13.364186 16.199482 16.535726
105 4 1 13.084550 16.584800 17.415120
106 4 1 13.414933 17.014540 18.255459
107 4 1 13.882527 16.251219 17.809705
108 4 1 12.884757 16.295639 17.759891
109 4 1 13.004888 16.082564 16.790268
110 4 1 13.421913 16.717310 17.440797
111 4 1 13.514233 17.691777 17.645473
112 4 1 13.842471 17.057026 18.345009
113 4 1 14.295556 17.421816 0.592067
114 4 1 14.261192 16.753024 18.415768
115 4 1 13.826190 16.160739 17.737556
116 4 1 13.688165 15.229525 17.400227
117 4 1 12.893054 15.809480 17.577574
118 4 1 12.099954 15.645527 16.990963
119 4 1 12.551515 15.639354 16.098745
120 4 1 11.962207 15.134759 15.467793
121 4 1 12.091273 14.893736 14.505894
122 4 1 11.495729 15.236108 13.779183
123 4 1 10.534029 15.046854 13.977468
124 4 1 11.109767 14.391486 14.466363
125 4 1 11.718054 13.997824 13.777147
126 4 1 11.408923 13.991582 12.826148
127 4 1 11.252044 14.744079 13.465787
128 4 1 11.183498 15.573176 12.910900
129 5 1 1.477238 10.643560 12.221603
130 5 1 2.076707 11.346868 12.603696
131 5 1 2.635439 12.111909 12.283492
132 5 1 1.765265 11.777031 11.922030
133 5 1 2.505411 12.196495 11.396450
134 5 1 3.477852 12.306565 11.601979
135 5 1 3.920074 11.410399 11.638401
136 5 1 4.582974 11.380519 12.386513
137 5 1 4.549219 12.101694 11.694583
138 5 1 4.827297 11.333980 11.117272
139 5 1 4.603191 10.676509 10.397891
140 5 1 4.997913 10.442688 11.286442
141 5 1 5.994001 10.466497 11.371542
142 5 1 6.970392 10.548489 11.171695
143 5 1 7.794403 10.701494 10.626173
144 5 1 7.163573 11.195666 10.027970
145 5 1 7.806977 11.007683 10.770057
146 5 1 8.548405 11.492448 10.306067
147 5 1 9.072728 12.298146 10.030503
148 5 1 9.057583 12.889602 10.836699
149 5 1 9.183743 13.096166 9.866434
150 5 1 9.422984 13.930388 9.369606
151 5 1 9.184598 13.175665 8.758406
152 5 1 9.720636 13.498806 9.538306
153 5 1 9.076013 13.083460 8.896473
154 5 1 8.533739 12.749948 8.125299
155 5 1 8.656759 12.036356 7.435623
156 5 1 9.054628 12.935837 7.616272
157 5 1 8.806729 12.200639 6.985375
158 5 1 9.558078 11.833996 7.534054
159 5 1 9.664450 12.087664 6.572629
160 5 1 10.612847 11.929500 6.297807
161 6 1 6.703470 6.034287 18.433100
162 6 1 6.282388 5.211569 18.051228
163 6 1 5.343821 5.333083 17.728230
164 6 1 5.208596 4.577845 18.369580
165 6 1 6.172900 4.353517 18.228882
166 6 1 6.593360 3.963340 17.409751
167 6 1 6.919989 3.098665 17.791392
168 6 1 7.009616 2.352257 18.450819
169 6 1 6.664662 1.843985 0.673556
170 6 1 7.450383 1.988136 1.275106
171 6 1 7.242321 2.702105 0.606556
172 6 1 6.869747 2.435775 18.283948
173 6 1 7.610120 2.027619 17.749853
174 6 1 7.132740 2.806691 17.343460
175 6 1 7.695909 3.215761 18.061445
176 6 1 6.988640 3.155821 0.199488
177 6 1 6.170796 3.179792 0.774429
178 6 1 6.983445 2.610748 0.648766
179 6 1 6.689091 3.223722 18.481897
180 6 1 6.507449 3.954267 0.573804
181 6 1 7.445530 3.774227 0.869761
182 6 1 8.194414 3.177626 0.581250
183 6 1 7.201620 3.272184 0.654865
184 6 1 7.522216 3.598368 18.331939
185 6 1 7.751761 3.736790 0.728988
186 6 1 7.801166 3.306545 18.393985
187 6 1 7.520488 2.991550 17.487343
188 6 1 7.935858 2.082245 17.462218
189 6 1 7.271189 1.466441 17.885301
190 6 1 7.600571 0.620284 17.466342
191 6 1 7.151086 0.302726 18.301280
192 6 1 7.204598 0.891669 0.541326
193 7 1 5.342351 10.421255 5.502614
194 7 1 4.607815 10.764247 4.917112
195 7 1 5.317830 11.380124 4.575683
196 7 1 4.915442 12.265691 4.343617
197 7 1 5.853294 12.059036 4.622413
198 7 1 6.126057 11.098629 4.679148
199 7 1 6.531838 10.575618 3.929614
200 7 1 5.942506 9.949551 3.418999
201 7 1 6.869820 10.112588 3.082089
202 7 1 5.940844 10.002114 3.435359
203 7 1 5.698090 9.590106 4.313607
204 7 1 6.521631 10.017034 4.687122
205 7 1 5.704769 9.636470 4.253640
206 7 1 5.545777 10.563506 3.914045
207 7 1 6.377132 10.757229 3.393160
208 7 1 6.150037 10.524113 2.447600
209 7 1 5.178903 10.357263 2.277133
210 7 1 4.752821 9.758579 1.598877
211 7 1 5.107870 10.214856 0.782941
212 7 1 5.846170 10.879776 0.669827
213 7 1 5.692229 11.120085 1.628239
214 7 1 5.046217 11.694689 1.125745
215 7 1 5.892538 12.226286 1.159575
216 7 1 6.259222 11.309935 1.320329
217 7 1 6.860708 10.589672 0.974732
218 7 1 6.348321 10.010822 1.609075
219 7 1 6.989648 10.640083 1.170064
220 7 1 7.410548 11.161335 0.427677
221 7 1 6.533304 11.273067 0.894536
222 7 1 6.455923 10.276096 0.886830
223 7 1 7.250507 10.630531 1.379792
224 7 1 7.124012 11.347233 2.065603
225 8 1 6.717003 4.334729 10.558837
226 8 1 7.124068 5.083784 11.081538
227 8 1 7.588258 4.458704 11.709074
228 8 1 8.285058 3.995072 11.161794
229 8 1 8.469108 4.630521 11.911681
230 8 1 9.420858 4.878182 11.730475
231 8 1 9.969801 5.036798 12.551147
232 8 1 9.351360 4.466390 12.010625
233 8 1 10.171868 4.701770 11.489700
234 8 1 10.174739 5.353203 10.730999
235 8 1 10.848439 4.620072 10.638004
236 8 1 11.300433 5.437919 10.994135
237 8 1 10.307758 5.558467 11.002198
238 8 1 10.894253 6.294173 11.340960
239 8 1 11.499181 5.780255 11.949195
240 8 1 12.090374 5.050511 12.292656
241 8 1 12.807217 5.744595 12.226439
242 8 1 13.566154 6.086257 12.780770
243 8 1 12.671496 5.653431 12.891442
244 8 1 12.103736 6.476023 12.922918
245 8 1 12.538627 6.036984 13.709121
246 8 1 11.558073 6.093113 13.897176
247 8 1 12.533625 6.067646 14.115464
248 8 1 12.846658 5.192581 13.746315
249 8 1 11.991301 4.755164 13.468770
250 8 1 11.384239 4.485415 14.216240
251 8 1 10.480112 4.140608 14.468557
252 8 1 11.250740 3.637201 14.077770
253 8 1 11.334471 3.611950 13.081602
254 8 1 10.628308 3.245228 12.475922
255 8 1 9.991186 2.811997 11.838436
256 8 1 9.669007 3.242719 10.995418
257 9 1 5.378943 14.461083 1.785413
258 9 1 6.112149 14.245460 2.430328
259 9 1 5.983714 13.996998 1.470239
260 9 1 5.878231 14.804416 0.889764
261 9 1 6.181178 13.947572 0.472581
262 9 1 5.370068 14.460274 0.754071
263 9 1 5.791629 14.862429 1.566819
264 9 1 6.066168 15.657180 2.108113
265 9 1 5.489640 14.842502 2.170684
266 9 1 5.123821 14.950760 3.095052
267 9 1 5.890452 15.481455 2.733611
268 9 1 6.539649 14.755332 2.960082
269 9 1 6.604869 15.426763 2.221890
270 9 1 5.722076 15.526483 2.680947
271 9 1 6.563921 15.224224 2.233806
272 9 1 6.410781 15.995778 1.616349
273 9 1 6.764996 16.480689 2.415969
274 9 1 6.796905 15.686622 1.808977
275 9 1 5.830285 15.550669 1.591808
276 9 1 5.796974 15.012102 0.749885
277 9 1 6.684467 15.117806 1.198419
278 9 1 5.699637 15.270199 1.115429
279 9 1 5.482834 15.088290 2.074546
280 9 1 5.534355 14.665489 2.979303
281 9 1 6.363337 15.224765 2.979048
282 9 1 6.328594 14.456876 3.618688
283 9 1 5.489884 14.219604 3.128517
284 9 1 6.461715 14.269711 3.358805
285 9 1 6.353460 13.819108 2.472668
286 9 1 6.923670 13.334303 1.809475
287 9 1 6.725494 14.031639 2.498278
288 9 1 6.217136 13.890255 3.347738
289 10 1 2.133776 5.842819 6.535894
290 10 1 1.836647 6.549712 7.177779
291 10 1 2.062308 5.916115 6.437757
292 10 1 1.615958 6.810042 6.396957
293 10 1 2.007543 6.162194 5.743541
294 10 1 2.267128 6.207501 6.708198
295 10 1 1.416060 6.614285 6.376218
296 10 1 1.171339 6.711579 5.411518
297 10 1 0.620725 7.484710 5.726309
298 10 1 0.727147 7.962311 6.598417
299 10 1 0.107803 8.443558 7.218751
300 10 1 17.866005 8.104111 6.737436
301 10 1 17.162412 7.457423 6.442900
302 10 1 16.959298 8.027366 7.239084
303 10 1 16.479615 8.825289 7.604081
304 10 1 16.870199 9.345437 8.363615
305 10 1 16.021744 8.832367 8.493555
306 10 1 16.715677 9.010092 7.795793
307 10 1 16.443165 9.274518 8.720896
308 10 1 17.234159 9.824243 8.989470
309 10 1 16.602709 10.529539 9.311693
310 10 1 17.239021 10.516940 8.540365
311 10 1 17.154398 11.263102 7.880000
312 10 1 16.920453 11.798294 7.068311
313 10 1 17.850815 11.467748 7.226946
314 10 1 18.088585 11.871751 8.110262
315 10 1 17.265410 11.311652 8.203390
316 10 1 18.140165 11.576298 7.797475
317 10 1 18.392285 12.105082 6.987029
318 10 1 0.732403 12.466006 7.206209
319 10 1 18.565287 11.824051 6.982792
320 10 1 0.544685 12.259963 7.698428
321 11 1 13.331819 12.485074 3.594757
322 11 1 13.380984 12.573352 2.599875
323 11 1 13.923588 13.335616 2.246981
324 11 1 14.600505 13.193221 2.969136
325 11 1 14.367554 12.272782 2.655248
326 11 1 14.682730 13.172513 2.353340
327 11 1 15.386830 12.927668 1.686786
328 11 1 15.739486 13.733748 2.162042
329 11 1 15.574411 14.043195 3.098521
330 11 1 16.197770 13.403579 3.548315
331 11 1 16.300526 13.252447 2.565157
332 11 1 15.490314 12.768206 2.234904
333 11 1 15.087649 12.212384 1.507633
334 11 1 15.395704 12.711814 2.317369
335 11 1 14.571041 12.156611 2.425449
336 11 1 15.264120 12.647757 1.897796
337 11 1 14.362873 12.582198 2.326113
338 11 1 13.379985 12.669082 2.488540
339 11 1 13.059402 13.592707 2.698643
340 11 1 13.951597 13.400643 2.289864
341 11 1 14.073865 13.493863 1.301754
342 11 1 14.908046 13.192890 0.839632
343 11 1 14.016339 13.644325 0.807004
344 11 1 14.748850 13.928212 0.188267
345 11 1 14.166701 13.536656 0.900858
346 11 1 14.169587 13.225027 1.851058
347 11 1 14.515118 12.671324 1.093416
348 11 1 13.614738 12.843135 1.493162
349 11 1 13.329903 11.906404 1.696642
350 11 1 13.198341 10.930976 1.519918
351 11 1 12.560720 11.408201 2.124645
352 11 1 13.499782 11.416327 2.468298
353 12 1 9.207959 7.049565 11.995603
354 12 1 8.735655 7.928017 12.068072
355 12 1 9.410540 8.634310 12.281799
356 12 1 9.002361 7.870447 11.781897
357 12 1 8.778225 8.230189 12.687627
358 12 1 9.411695 7.849498 13.361267
359 12 1 8.954461 7.158404 13.921022
360 12 1 8.755334 6.180276 13.860903
361 12 1 8.972175 6.059731 12.892168
362 12 1 8.564362 5.810389 12.013807
363 12 1 8.612370 5.934417 13.004924
364 12 1 8.843872 5.862037 13.975062
365 12 1 8.301795 5.477735 14.722367
366 12 1 8.808896 6.339499 14.707916
367 12 1 9.759787 6.645900 14.664028
368 12 1 9.611650 6.434628 15.630165
369 12 1 10.566577 6.651571 15.832774
370 12 1 11.309210 7.236911 16.158156
371 12 1 10.792357 7.878930 15.591875
372 12 1 10.051560 8.428512 15.205636
373 12 1 10.195316 7.440889 15.268377
374 12 1 9.465326 7.866173 15.803399
375 12 1 9.637475 7.546384 16.735118
376 12 1 10.376037 6.957929 16.406109
377 12 1 10.431036 7.021322 17.402581
378 12 1 9.692827 7.621042 17.711424
379 12 1 9.456838 8.591969 17.671306
380 12 1 10.379835 8.951052 17.809640
381 12 1 10.050435 8.118182 18.254414
382 12 1 9.569152 7.741601 17.462863
383 12 1 10.392911 7.188852 17.336809
384 12 1 10.065130 7.407838 18.255833
385 13 1 12.522791 13.122237 1.535557
386 13 1 12.587740 12.128540 1.626926
387 13 1 13.103495 11.650068 2.337602
388 13 1 12.786154 11.905363 3.250903
389 13 1 13.729171 12.201093 3.098381
390 13 1 13.134551 12.793972 3.641448
391 13 1 12.794646 13.637153 4.057995
392 13 1 11.868526 13.765346 3.703218
393 13 1 11.280616 13.823020 2.896350
394 13 1 11.828626 12.988353 2.841430
395 13 1 11.200374 13.712325 2.556538
396 13 1 11.493546 12.900004 2.052371
397 13 1 10.965770 13.632859 2.481761
398 13 1 11.596019 14.281359 2.908651
399 13 1 11.773403 13.353863 3.237720
400 13 1 11.716693 12.694615 3.987504
401 13 1 11.586942 13.684750 3.934607
402 13 1 10.725093 13.364865 3.541045
403 13 1 11.302895 14.150389 3.319465
404 13 1 12.169224 14.145655 2.820015
405 13 1 12.324459 13.833993 3.757441
406 13 1 11.956260 13.600369 4.657358
407 13 1 12.181766 14.546134 4.891186
408 13 1 11.463191 15.184271 4.614727
409 13 1 12.435290 15.268792 4.395915
410 13 1 12.637339 15.640311 3.489742
411 13 1 12.772636 16.152545 2.641620
412 13 1 11.849188 16.110195 3.022999
413 13 1 11.462546 17.029072 2.944422
414 13 1 12.425074 16.768723 2.868529
415 13 1 12.306206 17.457134 2.153015
416 13 1 12.746899 18.305983 1.861047
417 14 1 15.048724 4.921630 2.430141
418 14 1 15.723590 4.221952 2.664678
419 14 1 16.036335 4.392073 3.599156
420 14 1 16.276600 4.094200 4.523031
421 14 1 16.479924 4.710256 5.284040
422 14 1 15.503387 4.908290 5.368644
423 14 1 14.629795 5.367818 5.208427
424 14 1 15.410822 5.903072 5.530140
425 14 1 15.527501 5.531628 6.451234
426 14 1 14.940362 5.580401 7.259249
427 14 1 14.850749 5.764052 8.238148
428 14 1 14.223370 6.541959 8.202685
429 14 1 13.426758 6.629401 8.800818
430 14 1 12.679710 7.236599 8.530207
431 14 1 13.049438 7.113704 7.609231
432 14 1 13.971573 7.497625 7.656901
433 14 1 13.114327 7.133759 7.292579
434 14 1 13.476633 6.493157 6.615553
435 14 1 13.582175 5.510697 6.461824
436 14 1 13.180964 4.983059 7.210575
437 14 1 13.352780 4.335852 7.953274
438 14 1 12.951121 3.600229 7.407812
439 14 1 12.037732 3.601010 7.000725
440 14 1 11.211963 3.229133 7.424769
441 14 1 11.547309 2.534980 6.787827
442 14 1 11.947364 3.285074 7.314434
443 14 1 11.572036 2.594421 7.932598
444 14 1 11.998191 3.389121 7.500345
445 14 1 12.913295 3.429766 7.099181
446 14 1 12.462580 2.538428 7.147892
447 14 1 12.870756 1.696804 7.501533
448 14 1 13.222900 2.586903 7.790875
449 15 1 5.890998 5.610981 8.892368
450 15 1 5.590117 6.556486 8.767903
451 15 1 6.160909 6.553052 9.588990
452 15 1 5.448853 5.866651 9.441245
453 15 1 5.537095 5.615575 8.477309
454 15 1 4.640306 5.755683 8.057619
455 15 1 4.521382 4.875754 7.597638
456 15 1 4.759169 4.011916 7.153520
457 15 1 4.266660 4.672777 7.719821
458 15 1 3.844754 4.012530 7.098477
459 15 1 3.934345 4.500404 6.230173
460 15 1 2.981899 4.774685 6.097448
461 15 1 2.271568 4.073647 6.160484
462 15 1 2.820861 4.875788 6.394677
463 15 1 2.835926 3.906057 6.150966
464 15 1 2.254341 3.135685 5.889649
465 15 1 2.985937 3.639957 6.348427
466 15 1 3.107028 3.904736 7.305103
467 15 1 3.173399 3.917361 8.302818
468 15 1 2.630440 3.510402 9.037379
469 15 1 2.513550 4.304403 9.633952
470 15 1 2.556587 3.543784 10.281723
471 15 1 2.349127 3.336129 11.237672
472 15 1 1.556592 3.910162 11.031820
473 15 1 1.615422 4.440005 11.877873
474 15 1 0.751661 4.551004 12.369398
475 15 1 0.277771 5.334929 11.968288
476 15 1 18.142431 5.864338 12.445100
477 15 1 0.371988 5.360543 12.109370
478 15 1 18.384346 4.542314 11.955782
479 15 1 17.495711 4.898332 11.666683
480 15 1 18.005577 5.574364 11.134689
481 16 1 0.829567 9.918851 16.421195
482 16 1 0.959915 10.284440 15.499591
483 16 1 0.811987 9.419262 15.020441
484 16 1 0.533813 10.320795 15.351888
485 16 1 1.053497 9.984181 14.566637
486 16 1 1.141962 9.073013 14.164210
487 16 1 1.472143 10.005110 14.015296
488 16 1 2.428738 9.870370 14.273694
489 16 1 2.186677 9.079704 14.836058
490 16 1 2.337693 9.771967 15.541725
491 16 1 1.338477 9.802440 15.566989
492 16 1 1.442931 9.401146 16.476962
493 16 1 0.594352 9.748127 16.077565
494 16 1 1.137143 10.304143 15.448101
495 16 1 0.790830 9.764286 16.215318
496 16 1 1.515546 9.093443 16.372659
497 16 1 2.092047 9.687885 15.812048
498 16 1 2.166480 9.026553 16.558439
499 16 1 1.655361 9.013850 17.417855
500 16 1 2.086876 9.837014 17.048806
501 16 1 2.599543 9.650896 17.886978
502 16 1 2.032997 10.342938 18.334308
503 16 1 1.904707 9.801861 0.599083
504 16 1 1.884995 10.768251 0.342759
505 16 1 2.225174 10.242088 18.129735
506 16 1 3.082497 10.742149 18.007523
507 16 1 3.189626 9.776431 17.771065
508 16 1 3.160851 9.602768 0.189095
509 16 1 2.390903 10.033406 0.659978
510 16 1 1.672387 9.356148 0.501685
511 16 1 1.924799 8.598090 1.103048
512 16 1 0.971193 8.576728 0.802748
513 17 1 5.173130 8.700314 18.094353
514 17 1 6.149173 8.818492 18.277036
515 17 1 6.757900 8.086367 0.016368
516 17 1 6.966876 7.536504 17.774033
517 17 1 6.507435 7.079486 18.535642
518 17 1 5.875493 7.734025 18.120638
519 17 1 4.912645 7.466036 18.153898
520 17 1 5.797691 7.403929 17.692556
521 17 1 4.899948 7.546157 18.109484
522 17 1 5.524219 7.719776 17.347813
523 17 1 5.045097 8.219265 16.626042
524 17 1 4.904577 9.208418 16.583268
525 17 1 4.659496 8.646819 17.373548
526 17 1 5.315645 7.969398 17.706066
527 17 1 4.909554 8.506749 16.966916
528 17 1 4.771469 9.482317 16.796036
529 17 1 5.736612 9.328738 17.007963
530 17 1 6.056379 10.078577 17.587177
531 17 1 6.551948 9.212048 17.646665
532 17 1 6.065049 9.676111 16.906682
533 17 1 6.234159 10.613592 17.210872
534 17 1 6.760883 11.415498 16.928898
535 17 1 6.586867 12.376116 16.712260
536 17 1 5.977350 13.145607 16.521547
537 17 1 5.356161 13.898875 16.737679
538 17 1 5.508120 13.105648 16.148019
539 17 1 4.570503 13.043863 15.805884
540 17 1 4.670865 12.788515 14.844257
541 17 1 3.918347 13.407597 15.068880
542 17 1 3.969823 13.505083 14.074976
543 17 1 4.027847 14.390338 14.536448
544 17 1 4.411112 14.209354 15.442182
545 18 1 16.383620 6.235430 0.187522
546 18 1 15.595595 5.627948 0.087607
547 18 1 16.009402 4.945260 18.051716
548 18 1 16.818826 4.414546 17.800367
549 18 1 15.878563 4.463059 18.137343
550 18 1 16.420066 5.299274 18.050631
551 18 1 17.287514 5.006009 18.452537
552 18 1 16.379385 5.348193 0.127451
553 18 1 15.691717 5.661234 18.038734
554 18 1 14.701383 5.553329 18.125882
555 18 1 14.305048 4.643212 18.005027
556 18 1 14.253987 4.853201 0.415041
557 18 1 13.317270 5.184456 0.301768
558 18 1 13.424330 5.890602 1.001693
559 18 1 14.321825 5.819383 1.436929
560 18 1 13.572184 5.942078 0.786556
561 18 1 13.585571 5.681980 18.387422
562 18 1 12.912504 5.764835 17.652496
563 18 1 13.116695 6.737162 17.538983
564 18 1 13.033180 6.057752 18.267973
565 18 1 12.426897 6.291982 17.508001
566 18 1 11.749992 6.014732 16.826142
567 18 1 12.089092 5.097347 17.034508
568 18 1 12.922106 5.234849 17.570401
569 18 1 13.016812 4.260087 17.772565
570 18 1 12.741420 3.996162 0.130603
571 18 1 11.759451 3.844478 0.017777
572 18 1 12.496444 3.203990 18.368223
573 18 1 13.116469 3.948943 0.048068
574 18 1 13.386441 3.028621 0.331127
575 18 1 13.833213 3.598199 1.021037
576 18 1 14.657761 3.074141 0.807770
577 19 1 12.952177 2.003385 2.719524
578 19 1 12.329057 2.747730 2.959676
579 19 1 11.831958 2.782713 2.092688
580 19 1 11.353004 3.236290 1.341109
581 19 1 10.776233 3.937504 0.922021
582 19 1 10.995858 4.671211 0.279029
583 19 1 11.182698 5.023925 1.195917
584 19 1 11.866704 5.750439 1.261586
585 19 1 11.239263 5.561284 0.506246
586 19 1 11.057356 6.417442 0.989882
587 19 1 10.770511 5.492988 1.241089
588 19 1 10.037403 5.633155 0.575577
589 19 1 9.460096 4.912493 0.191699
590 19 1 8.647013 5.034382 18.188810
591 19 1 7.727549 4.712017 17.963717
592 19 1 8.626607 5.134882 18.077208
593 19 1 8.343883 4.179087 18.157972
594 19 1 9.028438 4.907817 18.139611
595 19 1 8.517584 4.191287 17.664624
596 19 1 9.176448 3.482280 17.916034
597 19 1 9.729394 2.668250 18.093815
598 19 1 9.393324 3.449978 0.052777
599 19 1 9.750576 3.957341 0.836966
600 19 1 9.872219 3.198104 0.197621
601 19 1 9.100639 2.740711 0.639724
602 19 1 9.518248 1.966303 0.164439
603 19 1 9.812532 1.572320 17.860063
604 19 1 9.291730 1.410129 0.131836
605 19 1 8.512930 1.834180 18.235968
606 19 1 7.989912 1.798624 17.384388
607 19 1 8.758576 1.837286 18.022871
608 19 1 9.418812 1.210958 17.608381
609 20 1 6.986484 7.492657 5.627884
610 20 1 7.199402 8.462228 5.748704
611 20 1 6.382507 8.416469 5.173736
612 20 1 6.082387 9.370044 5.148787
613 20 1 5.995442 8.484276 5.604698
614 20 1 6.063734 8.205291 4.646834
615 20 1 5.529255 7.438370 4.291638
616 20 1 4.864308 6.906979 4.816490
617 20 1 4.835426 6.109477 5.419115
618 20 1 5.332685 6.964072 5.269444
619 20 1 5.465154 7.393979 4.376341
620 20 1 4.846486 6.891501 3.772383
621 20 1 5.093801 6.962843 4.738688
622 20 1 4.947979 6.867634 5.723407
623 20 1 5.290912 7.605928 6.304198
624 20 1 5.729824 7.856660 5.441359
625 20 1 6.203832 7.887888 6.321326
626 20 1 6.175325 7.585938 7.274224
627 20 1 5.677063 8.248456 6.714934
628 20 1 6.629335 8.536398 6.613605
629 20 1 7.352403 7.995409 7.043143
630 20 1 7.643305 8.854605 6.622240
631 20 1 8.194252 9.688919 6.602813
632 20 1 8.402561 10.294719 7.370675
633 20 1 9.300932 10.686439 7.171964
634 20 1 8.585347 10.084837 6.816980
635 20 1 9.000523 10.758411 6.205484
636 20 1 8.235802 10.521933 6.804883
637 20 1 8.438081 9.551762 6.938488
638 20 1 8.350460 9.264529 5.984643
639 20 1 8.779850 8.603631 6.600141
640 20 1 7.911997 8.649252 6.105418
641 21 1 7.703155 6.403888 3.467331
642 21 1 6.765124 6.750434 3.465862
643 21 1 6.107001 7.039617 2.770703
644 21 1 6.948867 7.552901 2.937437
645 21 1 7.903761 7.509517 2.643676
646 21 1 7.151729 8.042796 2.256299
647 21 1 7.994883 8.566704 2.377174
648 21 1 8.848508 8.945400 2.019522
649 21 1 8.131518 8.613357 2.632443
650 21 1 8.053781 7.630255 2.798180
651 21 1 8.496933 6.796116 2.469809
652 21 1 9.060791 7.024658 1.676189
653 21 1 9.235714 7.048257 2.660488
654 21 1 9.664744 7.851991 2.248245
655 21 1 10.435330 7.254909 2.025329
656 21 1 10.423908 7.916450 2.775152
657 21 1 10.393700 6.919716 2.850045
658 21 1 11.059640 6.528774 3.485410
659 21 1 10.419508 6.017173 2.912266
660 21 1 10.423635 5.512793 2.048794
661 21 1 10.550286 5.202523 2.990968
662 21 1 10.188907 5.460595 3.886962
663 21 1 10.208464 6.277800 3.310945
664 21 1 9.758434 5.384799 3.306146
665 21 1 9.098515 5.097202 4.000261
666 21 1 9.770003 4.747277 4.653451
667 21 1 10.008926 4.288500 5.509277
668 21 1 9.146304 4.540864 5.947679
669 21 1 9.702289 4.795252 5.156372
670 21 1 9.021627 4.133453 5.470573
671 21 1 8.410247 3.581736 6.037867
672 21 1 8.504178 2.878047 5.333596
673 22 1 9.905908 4.006316 0.139736
674 22 1 9.853944 3.562682 17.811391
675 22 1 9.046850 2.975953 17.745455
676 22 1 8.590577 3.856334 17.616057
677 22 1 8.895910 3.021348 17.158269
678 22 1 8.690850 2.871818 16.191009
679 22 1 9.104744 2.825134 15.281882
680 22 1 8.716303 1.974112 14.928506
681 22 1 9.540508 1.610568 15.362698
682 22 1 9.132139 2.491990 15.125357
683 22 1 8.378814 2.225641 14.524059
684 22 1 8.196916 3.161130 14.221118
685 22 1 7.724132 3.472320 15.045518
686 22 1 8.716346 3.445039 14.923994
687 22 1 7.932988 3.469467 15.545085
688 22 1 7.983920 4.393647 15.923630
689 22 1 7.204371 4.945257 16.220328
690 22 1 8.042873 4.697551 16.705670
691 22 1 8.273495 5.215827 15.882138
692 22 1 8.528671 5.864496 15.165122
693 22 1 8.129588 5.007961 15.492353
694 22 1 7.244466 4.621240 15.751206
695 22 1 7.804266 5.449056 15.787849
696 22 1 7.385509 4.889217 15.072851
697 22 1 6.393652 4.929702 14.952106
698 22 1 5.950017 5.705119 15.401458
699 22 1 5.002249 5.688557 15.719987
700 22 1 4.861255 4.714147 15.895052
701 22 1 4.968112 4.494120 16.864676
702 22 1 5.499416 4.929361 16.137846
703 22 1 6.140351 4.431300 16.721916
704 22 1 5.952742 3.597618 17.241317
705 23 1 8.981219 7.492718 2.056292
706 23 1 8.569125 8.057801 2.771036
707 23 1 8.208611 8.742483 3.404471
708 23 1 9.203407 8.822487 3.467548
709 23 1 8.946425 8.811962 4.433906
710 23 1 8.187912 8.703453 5.076468
711 23 1 7.304728 9.003986 5.436560
712 23 1 6.509413 9.601709 5.537558
713 23 1 7.406052 9.417465 5.134952
714 23 1 8.006744 9.657097 4.372229
715 23 1 8.581741 10.391719 4.732381
716 23 1 8.902290 10.767182 5.602022
717 23 1 9.799380 10.430524 5.888188
718 23 1 9.716230 11.044727 5.103432
719 23 1 9.953006 10.855704 4.150433
720 23 1 9.444585 10.030919 3.902969
721 23 1 9.228332 9.794139 2.955778
722 23 1 9.046512 8.913627 3.393545
723 23 1 9.653671 9.061734 2.612890
724 23 1 9.566722 8.065603 2.600174
725 23 1 10.331206 7.950842 1.965829
726 23 1 10.240092 7.080380 1.482100
727 23 1 10.598690 7.122139 2.414658
728 23 1 10.828010 7.927343 2.961520
729 23 1 10.961512 7.765268 1.983814
730 23 1 11.656186 7.397657 1.365517
731 23 1 12.283719 8.164503 1.230801
732 23 1 11.707336 8.946516 1.467946
733 23 1 11.092000 8.897807 0.681187
734 23 1 11.948873 8.433533 0.457091
735 23 1 11.292855 9.149823 0.694935
736 23 1 12.133178 9.155428 1.236992
737 24 1 6.993597 3.444884 9.226375
738 24 1 6.507163 3.431695 10.099993
739 24 1 6.635762 4.348215 9.721240
740 24 1 6.771047 3.393176 9.985057
741 24 1 7.176253 4.296634 9.845157
742 24 1 7.952095 4.619468 10.387233
743 24 1 6.953498 4.645064 10.340884
744 24 1 7.780727 4.083540 10.321304
745 24 1 7.160308 3.601191 10.939706
746 24 1 7.480143 2.690439 11.200927
747 24 1 7.447965 3.468750 11.827980
748 24 1 7.641421 2.571917 12.225806
749 24 1 7.709956 2.655135 11.231634
750 24 1 8.157772 1.770975 11.364751
751 24 1 8.398285 2.319887 10.564221
752 24 1 8.796018 2.145595 9.663426
753 24 1 9.404610 2.389168 8.908252
754 24 1 9.033442 3.317722 8.903506
755 24 1 9.193515 3.084796 9.862735
756 24 1 10.024366 3.580722 9.610260
757 24 1 10.369349 2.987150 8.883170
758 24 1 10.814307 3.364368 9.695401
759 24 1 11.744895 3.314402 10.058043
760 24 1 12.090255 3.767501 9.236200
761 24 1 12.560999 2.968582 8.861862
762 24 1 11.561242 2.978003 8.881807
763 24 1 11.900220 3.573868 9.609845
764 24 1 10.902492 3.612393 9.554565
765 24 1 10.859296 3.232348 8.630606
766 24 1 10.539929 2.365519 9.013505
767 24 1 11.280391 2.091541 9.627224
768 24 1 11.275979 2.049523 10.626331
769 25 1 15.613323 14.633686 17.397194
770 25 1 15.361157 14.045634 16.628684
771 25 1 15.828913 13.216409 16.322758
772 25 1 16.484183 12.663912 16.837897
773 25 1 16.915900 13.486463 16.467721
774 25 1 17.309593 12.588170 16.662849
775 25 1 16.507691 13.124989 16.925106
776 25 1 16.510794 12.718563 16.011428
777 25 1 16.162363 12.480956 16.918147
778 25 1 15.573358 11.672831 16.915871
779 25 1 15.658230 12.030193 17.845972
780 25 1 15.406855 12.834875 18.383837
781 25 1 16.244250 12.367011 0.100101
782 25 1 16.407899 13.227887 18.184677
783 25 1 15.529798 12.779767 18.352389
784 25 1 15.974021 11.978395 17.951804
785 25 1 15.723977 11.018842 18.081168
786 25 1 15.094084 11.481520 17.457338
787 25 1 15.736433 10.781947 17.144311
788 25 1 15.427585 9.858599 16.916188
789 25 1 15.515961 8.868609 17.026227
790 25 1 14.571143 8.546707 17.087039
791 25 1 13.607156 8.659097 17.328075
792 25 1 13.382250 7.684722 17.324737
793 25 1 13.100262 6.725942 17.359735
794 25 1 12.155818 6.731096 17.688364
795 25 1 12.504575 6.157712 18.429713
796 25 1 12.116212 6.282892 0.776322
797 25 1 11.798493 7.196795 1.028980
798 25 1 11.901697 7.553694 1.957405
799 25 1 12.204068 7.807888 1.038733
800 25 1 11.890005 6.905642 0.743238
801 26 1 7.319496 12.618987 17.529155
802 26 1 8.101241 12.068015 17.237086
803 26 1 8.874435 12.638059 17.514972
804 26 1 8.945070 13.553479 17.118719
805 26 1 8.537858 14.380011 17.507335
806 26 1 8.433929 15.345147 17.747569
807 26 1 8.348608 15.612318 0.141078
808 26 1 7.812269 16.350528 0.550209
809 26 1 8.415415 16.560527 18.347074
810 26 1 9.350531 16.224720 18.233967