#Initial configuration
640 atoms
2 atom types
620 bonds
1 bond types
0.0 21.690120 xlo xhi
0.0 21.690120 ylo yhi
0.0 21.690120 zlo zhi
0 0 0 xy xz yz

Atoms # bond

1 1 1 1.200364 5.662617 4.698344
2 1 1 0.936912 6.604023 4.908934
3 1 1 1.649613 6.048099 4.481141
4 1 1 2.602284 6.172489 4.203750
5 1 1 2.404114 7.010573 3.695475
6 1 1 1.468836 7.201229 3.397305
7 1 1 1.269041 6.384124 2.856546
8 1 1 1.115703 5.448728 2.537921
9 1 1 1.605108 6.047114 1.903559
10 1 1 1.650042 6.161679 0.911160
11 1 1 2.192071 5.647440 0.246507
12 1 1 2.048674 4.667009 0.381385
13 1 1 2.100642 5.577145 0.792422
14 1 1 1.245885 6.093954 0.744474
15 1 1 1.930029 6.821024 0.686883
16 1 1 1.019452 7.005773 1.056635
17 1 1 1.728871 6.882933 0.362636
18 1 1 2.279991 7.595854 0.796238
19 1 1 2.692539 7.270437 1.647066
20 1 1 2.110251 6.886761 0.930314
21 1 1 3.095301 6.969591 0.779265
22 1 1 2.848498 6.639969 21.558102
23 1 1 2.839460 7.195336 20.726545
24 1 1 2.062378 6.952845 20.145734
25 1 1 1.312183 6.624344 19.571893
26 1 1 2.173660 6.117253 19.598647
27 1 1 1.598281 5.355385 19.301162
28 1 1 0.942907 5.015024 19.975431
29 1 1 1.676259 5.653630 19.742243
30 1 1 1.492274 5.372470 18.800384
31 1 1 0.693717 5.957741 18.659797
32 1 1 1.563824 6.426925 18.810731
33 2 1 7.012329 9.726524 1.606177
34 2 1 7.626825 9.160135 1.056998
35 2 1 7.821299 8.987133 0.091467
36 2 1 8.608206 9.444215 21.367035
37 2 1 8.709666 10.429138 21.507154
38 2 1 7.715247 10.510741 21.440283
39 2 1 8.530305 10.006607 21.154750
40 2 1 7.667955 10.296253 20.739470
41 2 1 7.070882 9.749724 21.326675
42 2 1 6.549353 9.380224 0.405632
43 2 1 6.214015 10.318322 0.318909
44 2 1 6.659669 9.503104 21.639148
45 2 1 5.771310 9.383403 21.195876
46 2 1 5.667698 10.145883 20.557214
47 2 1 4.778157 10.330166 20.139175
48 2 1 5.279710 9.831925 20.846423
49 2 1 5.954768 10.371125 21.349971
50 2 1 5.050198 10.576621 0.033381
51 2 1 5.218189 11.550009 21.567630
52 2 1 5.025173 10.786332 20.951560
53 2 1 5.743071 11.037636 20.302353
54 2 1 5.928534 10.349798 21.004123
55 2 1 5.020152 10.291757 20.590030
56 2 1 5.350307 10.858023 19.834821
57 2 1 5.076851 11.696128 19.362802
58 2 1 5.087333 11.844673 18.373952
59 2 1 5.400000 10.896398 18.319052
60 2 1 5.109157 11.020620 17.370380
61 2 1 5.464983 10.094029 17.248653
62 2 1 5.318131 10.354188 18.202986
63 2 1 5.704882 11.155807 17.747102
64 2 1 5.531801 10.478002 18.461681
65 3 1 12.489192 9.512391 19.112703
66 3 1 12.950029 8.796161 18.588638
67 3 1 12.873485 9.639616 18.056919
68 3 1 12.597217 8.960338 18.736814
69 3 1 12.084779 9.693892 19.183252
70 3 1 12.752970 9.814385 19.917420
71 3 1 12.083102 9.236387 19.451378
72 3 1 11.104200 9.401602 19.571603
73 3 1 10.885587 8.888396 18.741646
74 3 1 10.920679 8.555157 19.683835
75 3 1 10.493664 8.525809 18.780067
76 3 1 9.905481 7.745717 18.566767
77 3 1 10.073519 8.138962 19.470715
78 3 1 10.476652 8.483716 18.622996
79 3 1 9.694473 8.919498 18.177697
80 3 1 10.326406 9.209059 17.458798
81 3 1 10.985873 9.772276 17.956683
82 3 1 10.696988 10.695618 18.209633
83 3 1 10.973492 11.654211 18.277794
84 3 1 11.329192 10.725212 18.175627
85 3 1 11.733574 11.611693 18.400631
86 3 1 11.496884 12.582726 18.367891
87 3 1 11.559107 13.285189 17.658897
88 3 1 12.320589 13.917579 17.801123
89 3 1 12.115032 13.366919 16.992100
90 3 1 12.420056 13.094501 17.904650
91 3 1 11.909193 12.649053 17.169398
92 3 1 11.563408 12.249809 18.018537
93 3 1 10.729534 12.554980 17.558620
94 3 1 11.460904 12.172696 18.123382
95 3 1 11.955798 13.009519 17.889273
96 3 1 12.169192 13.057823 18.865044
97 4 1 11.355540 14.834667 3.606060
98 4 1 12.081400 14.161007 3.745015
99 4 1 11.628855 14.381913 4.608961
100 4 1 12.201894 13.569981 4.720289
101 4 1 13.166798 13.466898 4.478765
102 4 1 12.459894 12.776386 4.631998
103 4 1 11.969963 12.010897 4.214873
104 4 1 12.030418 11.258647 4.870972
105 4 1 12.295778 10.649350 4.123749
106 4 1 11.953044 9.932993 4.731504
107 4 1 11.181186 10.410140 5.151703
108 4 1 11.404519 10.318541 4.181274
109 4 1 10.678023 10.368516 3.495923
110 4 1 9.857664 10.240655 4.053295
111 4 1 9.361990 10.948213 3.549639
112 4 1 9.909836 11.562934 4.117075
113 4 1 9.004929 11.941673 4.311241
114 4 1 8.647552 11.042795 4.564815
115 4 1 7.725553 10.857682 4.904889
116 4 1 7.132685 10.182304 5.343491
117 4 1 6.154846 10.369480 5.437278
118 4 1 6.280234 10.414594 4.446196
119 4 1 7.245012 10.539756 4.677579
120 4 1 6.918881 11.108285 3.922321
121 4 1 7.123236 12.027679 4.258405
122 4 1 6.829233 12.162139 3.312106
123 4 1 6.974216 13.131734 3.509246
124 4 1 7.265858 13.855970 4.134088
125 4 1 7.798750 13.158651 3.654742
126 4 1 7.886635 13.491374 4.593663
127 4 1 8.071451 13.014250 5.452846
128 4 1 8.691782 12.270428 5.701678
129 5 1 19.225370 13.187701 18.907932
130 5 1 20.017575 12.981176 18.333686
131 5 1 19.394965 12.352605 17.867580
132 5 1 18.923221 13.232487 17.810438
133 5 1 19.473658 13.005181 18.613776
134 5 1 18.934662 13.664974 19.137375
135 5 1 17.957967 13.575959 18.942071
136 5 1 18.810337 13.243208 19.345485
137 5 1 19.094838 14.134003 18.991163
138 5 1 18.561663 14.482349 19.762123
139 5 1 19.078127 14.627086 20.606111
140 5 1 19.529066 15.459257 20.283397
141 5 1 19.707033 14.720730 19.633085
142 5 1 20.033596 13.804112 19.863667
143 5 1 19.827089 13.563860 18.915177
144 5 1 19.307644 13.400819 19.753982
145 5 1 19.091271 13.692522 18.822268
146 5 1 19.875443 13.321017 18.325218
147 5 1 18.878130 13.301994 18.254466
148 5 1 19.300404 13.836997 17.522718
149 5 1 19.981125 13.964987 18.243992
150 5 1 20.330611 13.151261 17.779546
151 5 1 19.558364 13.765465 17.617098
152 5 1 18.867156 14.486423 17.567595
153 5 1 18.387773 14.826936 18.376448
154 5 1 19.317348 15.186588 18.457321
155 5 1 18.483674 15.251610 17.908905
156 5 1 18.915421 14.426290 17.544980
157 5 1 19.327730 14.533403 18.449706
158 5 1 19.905242 13.766242 18.170522
159 5 1 20.073692 14.558479 17.584020
160 5 1 20.365341 14.371107 18.522013
161 6 1 0.889648 4.677124 4.739596
162 6 1 1.753409 4.906739 5.188143
163 6 1 0.854198 4.470420 5.220475
164 6 1 1.386914 4.551153 4.378040
165 6 1 1.029949 3.896787 3.711420
166 6 1 1.339441 4.819253 3.942226
167 6 1 1.872771 5.660500 3.853552
168 6 1 1.963833 5.324731 4.791084
169 6 1 1.211242 5.031269 5.380564
170 6 1 0.803122 4.569920 4.592785
171 6 1 0.619649 4.001588 5.394867
172 6 1 21.517995 4.521099 5.716118
173 6 1 0.033274 5.231685 6.389082
174 6 1 0.433705 6.147990 6.382785
175 6 1 0.247694 5.826924 7.311395
176 6 1 21.536998 6.664522 7.682579
177 6 1 21.181977 6.129283 8.449050
178 6 1 21.028542 5.904937 7.486696
179 6 1 0.062597 6.257290 8.079501
180 6 1 20.974191 5.927024 7.545813
181 6 1 20.391924 6.490226 8.132131
182 6 1 20.189068 7.386587 7.737939
183 6 1 20.098960 7.939342 8.566396
184 6 1 19.399622 7.612719 9.202199
185 6 1 18.761261 8.244714 8.762793
186 6 1 18.382185 7.890235 9.617571
187 6 1 18.452244 8.880425 9.496680
188 6 1 19.010537 8.814520 8.669658
189 6 1 19.519156 8.268300 9.335204
190 6 1 20.324288 7.904442 8.866834
191 6 1 20.574635 8.491747 8.097159
192 6 1 21.309284 9.147996 8.269289
193 7 1 13.243681 7.617787 11.128538
194 7 1 12.589082 7.826189 10.401854
195 7 1 11.648752 7.642567 10.115388
196 7 1 10.832864 7.582449 9.540313
197 7 1 10.238586 6.787998 9.665538
198 7 1 10.358629 7.189498 8.757581
199 7 1 10.000901 6.399119 9.254905
200 7 1 10.062057 5.706413 8.536283
201 7 1 9.905327 5.091853 7.763139
202 7 1 9.977143 4.094436 7.764450
203 7 1 9.127020 3.807787 8.206176
204 7 1 9.400582 3.007269 8.739406
205 7 1 10.304238 2.786258 9.106230
206 7 1 9.766467 3.229522 9.823391
207 7 1 9.678176 4.224665 9.866917
208 7 1 8.933913 4.884799 9.968384
209 7 1 9.003079 5.779496 9.527097
210 7 1 9.064508 5.655152 10.517433
211 7 1 9.373587 6.408789 11.097521
212 7 1 8.764612 5.624789 10.977130
213 7 1 8.100267 5.071986 10.474084
214 7 1 8.500310 4.262269 10.903413
215 7 1 9.427624 3.890666 10.858702
216 7 1 10.229527 4.176234 11.383490
217 7 1 10.024609 3.427353 10.753264
218 7 1 10.150814 2.522078 11.158910
219 7 1 10.049970 1.924424 10.363524
220 7 1 9.831001 1.016725 10.721485
221 7 1 9.015272 1.471751 10.364360
222 7 1 10.013524 1.438811 10.413426
223 7 1 9.719920 1.049066 11.286293
224 7 1 9.114548 0.626690 10.611665
225 8 1 19.944179 1.185471 2.584967
226 8 1 20.893695 1.189372 2.271272
227 8 1 21.360517 1.224870 3.154911
228 8 1 0.457248 1.231204 3.772022
229 8 1 21.213599 1.079303 3.447982
230 8 1 21.665797 0.772631 4.285520
231 8 1 21.269866 1.007311 3.397734
232 8 1 20.464148 1.064974 2.808249
233 8 1 20.015846 0.702095 3.625160
234 8 1 19.082619 0.976344 3.393052
235 8 1 19.522811 0.285712 3.966863
236 8 1 19.999923 0.905597 3.343881
237 8 1 20.347740 1.148192 4.249513
238 8 1 19.483417 1.224472 3.752395
239 8 1 19.543422 0.879344 2.815759
240 8 1 20.452740 0.854108 2.400424
241 8 1 19.687218 0.601385 1.808725
242 8 1 18.884695 0.178599 1.387764
243 8 1 19.222521 21.146041 1.990765
244 8 1 19.473091 0.002130 2.790058
245 8 1 19.732427 21.300099 1.907470
246 8 1 19.000105 20.620020 1.942082
247 8 1 19.786060 20.093247 2.265787
248 8 1 19.799884 21.035833 2.599462
249 8 1 19.518658 0.197789 3.040913
250 8 1 19.077927 21.023061 3.281317
251 8 1 19.963059 21.306360 2.912151
252 8 1 19.239941 20.806659 2.435286
253 8 1 18.938316 21.656432 2.867615
254 8 1 19.501474 0.456347 3.532986
255 8 1 19.356317 0.851708 4.439970
256 8 1 20.269303 1.038468 4.077236
257 9 1 15.794557 11.921044 5.263826
258 9 1 15.427555 11.420127 6.047657
259 9 1 15.699990 12.320009 6.388232
260 9 1 16.589722 11.883497 6.254691
261 9 1 16.452468 11.531124 7.180431
262 9 1 16.079918 12.456722 7.247326
263 9 1 16.322650 13.409935 7.427511
264 9 1 16.641095 12.878559 8.212515
265 9 1 17.219757 13.187224 8.967417
266 9 1 17.764311 13.990763 8.727032
267 9 1 18.719096 14.111011 8.455137
268 9 1 18.464725 14.245454 7.497421
269 9 1 17.807047 13.776832 8.087212
270 9 1 18.670164 13.771733 7.582232
271 9 1 17.712557 13.750065 7.869494
272 9 1 18.140795 13.813746 6.968075
273 9 1 17.474799 14.534573 7.160060
274 9 1 17.447193 15.137959 7.957032
275 9 1 17.150295 16.074707 7.771685
276 9 1 18.038435 16.038162 7.313566
277 9 1 17.249534 16.195310 6.719477
278 9 1 17.885991 15.615514 7.228161
279 9 1 17.024079 15.228507 7.555779
280 9 1 17.757592 14.725510 7.098665
281 9 1 17.803579 13.728025 7.044734
282 9 1 18.587019 13.431166 7.590716
283 9 1 18.706569 12.440096 7.531670
284 9 1 19.486765 12.229084 8.120540
285 9 1 18.707145 11.602918 8.110119
286 9 1 18.763116 11.521357 9.105215
287 9 1 19.084695 12.451567 9.282119
288 9 1 20.001699 12.112657 9.492461
289 10 1 9.243441 11.413276 8.482782
290 10 1 8.410076 11.068733 8.914977
291 10 1 8.766558 10.867322 9.827312
292 10 1 9.120863 10.379657 10.625216
293 10 1 9.002180 11.045454 11.361849
294 10 1 8.839018 11.812819 10.741745
295 10 1 8.797570 12.645450 10.189470
296 10 1 8.171714 13.425030 10.165806
297 10 1 8.002164 14.402791 10.042376
298 10 1 8.542985 13.586428 10.245015
299 10 1 8.840085 12.770303 9.749362
300 10 1 9.460404 12.441091 10.461278
301 10 1 8.751860 12.038350 9.881826
302 10 1 9.583698 12.369611 10.327147
303 10 1 9.105263 11.501640 10.194010
304 10 1 9.409166 10.905806 10.937398
305 10 1 10.246201 10.685772 10.436440
306 10 1 9.254238 10.792972 10.503665
307 10 1 10.217002 10.660269 10.739198
308 10 1 10.974035 10.100024 11.075394
309 10 1 11.508215 9.625975 10.375445
310 10 1 12.169923 10.149501 9.838730
311 10 1 11.600631 10.938197 9.606640
312 10 1 11.578869 11.563549 10.386680
313 10 1 10.883598 11.558994 9.667947
314 10 1 10.649225 11.140411 8.790531
315 10 1 11.224910 11.633685 9.442657
316 10 1 10.394258 12.173239 9.580132
317 10 1 10.996229 11.711934 8.928343
318 10 1 10.528536 12.590866 9.021846
319 10 1 10.364024 11.687673 9.418304
320 10 1 10.241412 11.523628 8.439501
321 11 2 0.820019 15.891150 7.785617
322 11 2 1.059414 16.579020 8.470836
323 11 2 0.130886 16.360411 8.170761
324 11 2 1.054350 16.165440 8.501215
325 11 2 1.460725 17.040512 8.238329
326 11 2 2.315683 17.537787 8.090798
327 11 2 1.726835 17.588060 7.284119
328 11 2 2.168689 17.561287 6.387432
329 11 2 2.896685 18.167043 6.066369
330 11 2 2.155266 18.818417 6.227639
331 11 2 1.586023 18.611919 5.431824
332 11 2 1.935518 18.804874 6.348679
333 11 2 2.451647 18.353099 5.621004
334 11 2 3.332804 18.380259 6.093047
335 11 2 3.171140 18.155684 7.054000
336 11 2 2.266709 18.569449 6.950066
337 11 2 2.039432 17.959235 7.709002
338 11 2 2.040836 16.983426 7.927621
339 11 2 2.761731 16.634913 7.328581
340 11 2 3.261778 15.876665 6.910235
341 11 2 2.346825 15.501170 7.058103
342 11 2 1.826990 14.781521 6.597802
343 11 2 0.835435 14.867961 6.694488
344 11 2 1.516124 15.536812 6.395654
345 11 2 1.409662 15.146668 7.310232
346 11 2 1.978478 14.392502 6.982083
347 11 2 1.003025 14.322488 7.190862
348 11 2 0.215864 14.189758 7.793159
349 11 2 21.288935 13.800246 8.476921
350 11 2 20.904123 13.954693 7.566940
351 11 2 20.111742 13.977079 6.957323
352 11 2 19.199384 13.683517 6.671973
353 12 2 4.413487 5.157274 0.481487
354 12 2 4.587241 4.177253 0.384699
355 12 2 4.594650 4.949535 21.439582
356 12 2 4.484687 4.589091 0.675739
357 12 2 5.382970 4.417250 1.080162
358 12 2 5.551219 5.338417 1.431080
359 12 2 6.402172 5.350946 1.956172
360 12 2 5.469683 5.482938 1.619955
361 12 2 5.821270 5.776907 2.508756
362 12 2 6.700667 5.522401 2.911108
363 12 2 7.372381 6.229491 3.132072
364 12 2 8.008584 6.647642 2.483694
365 12 2 8.109710 5.698220 2.186422
366 12 2 7.464762 6.300677 1.716222
367 12 2 7.245874 7.164907 1.263239
368 12 2 6.760668 7.846461 1.811015
369 12 2 7.198339 6.948180 1.771844
370 12 2 6.456005 7.329050 1.220592
371 12 2 7.345806 7.679310 0.928063
372 12 2 7.241035 7.350683 1.866693
373 12 2 7.657587 6.963174 2.689081
374 12 2 7.693313 6.699951 3.653154
375 12 2 7.105103 6.540337 2.860353
376 12 2 7.441174 5.878761 2.190000
377 12 2 7.997820 5.276908 1.617359
378 12 2 8.301185 5.368755 0.668921
379 12 2 8.622493 4.854393 1.464027
380 12 2 7.942001 5.201118 2.109559
381 12 2 7.814434 5.883598 2.829245
382 12 2 7.041641 6.321195 2.369570
383 12 2 7.740999 5.840398 1.840671
384 12 2 8.373161 6.431874 1.340144
385 13 2 19.773649 20.028125 14.455844
386 13 2 20.181810 20.903839 14.713777
387 13 2 21.087705 20.753599 15.109735
388 13 2 0.206326 20.946964 14.554264
389 13 2 0.628491 21.458705 13.806001
390 13 2 1.222169 0.396128 13.302279
391 13 2 1.636034 1.064385 12.684098
392 13 2 1.499410 0.662143 13.589380
393 13 2 1.660585 0.124401 14.416940
394 13 2 1.714888 0.184786 15.413637
395 13 2 2.087612 21.626648 16.307753
396 13 2 2.212589 0.607570 17.038563
397 13 2 1.486164 1.177193 16.654068
398 13 2 0.563983 1.555821 16.575182
399 13 2 0.180148 0.927748 15.898281
400 13 2 0.078795 1.711894 15.286038
401 13 2 0.580532 1.879570 16.134651
402 13 2 0.809628 1.133765 16.760182
403 13 2 0.883629 2.025046 16.312812
404 13 2 1.833187 1.736750 16.189421
405 13 2 2.191131 1.647164 15.259985
406 13 2 2.114524 1.144301 16.120950
407 13 2 1.810336 0.530868 15.392137
408 13 2 1.194380 0.396249 16.168330
409 13 2 1.417216 21.286576 16.725712
410 13 2 1.975100 20.852182 17.432867
411 13 2 1.163820 21.401893 17.233763
412 13 2 1.621711 20.512890 17.230961
413 13 2 1.909758 21.327447 17.734474
414 13 2 1.513863 21.536218 18.628723
415 13 2 1.533469 20.604426 18.266259
416 13 2 2.381467 20.599084 17.736286
417 14 2 19.086161 10.633286 2.048949
418 14 2 18.265263 10.970438 2.509878
419 14 2 17.329049 11.246382 2.292261
420 14 2 16.739746 11.539909 1.539557
421 14 2 17.303007 10.856513 1.075113
422 14 2 17.849311 11.681357 1.220662
423 14 2 18.775225 11.345920 1.394342
424 14 2 18.074889 12.052085 1.498560
425 14 2 18.230584 12.737440 2.209930
426 14 2 17.782341 13.629249 2.271209
427 14 2 18.527759 13.379477 2.889243
428 14 2 18.919490 13.340938 3.808515
429 14 2 18.556297 13.148141 4.720064
430 14 2 18.722860 12.402446 5.365196
431 14 2 19.331468 12.322979 4.575714
432 14 2 19.788699 11.496439 4.247428
433 14 2 20.324996 12.320576 4.065263
434 14 2 19.746825 13.029415 3.661202
435 14 2 18.776624 13.095679 3.894266
436 14 2 17.958674 13.448406 3.439798
437 14 2 17.501107 13.458505 4.328915
438 14 2 17.709967 14.264847 4.882260
439 14 2 17.793911 13.570391 4.167638
440 14 2 16.808478 13.418132 4.243393
441 14 2 17.639223 12.880637 4.388170
442 14 2 18.160909 12.775989 5.234865
443 14 2 18.890763 12.099046 5.139682
444 14 2 19.172366 12.868992 5.712291
445 14 2 18.549518 13.623732 5.506308
446 14 2 17.587809 13.728735 5.759469
447 14 2 18.097025 13.697589 6.619543
448 14 2 17.943625 14.397606 7.316999
449 15 2 15.501497 19.738298 17.275424
450 15 2 16.196472 19.481592 16.603775
451 15 2 15.254542 19.409670 16.275758
452 15 2 16.029963 20.037334 16.206767
453 15 2 16.183171 19.303836 15.544568
454 15 2 16.380470 18.752280 16.355036
455 15 2 16.124183 19.630458 16.758918
456 15 2 15.381537 19.960590 16.176260
457 15 2 15.564587 19.080185 15.738790
458 15 2 15.529017 19.973648 16.186517
459 15 2 16.073936 20.336753 15.430727
460 15 2 15.280071 20.329564 14.822675
461 15 2 16.234403 20.428279 15.104643
462 15 2 16.946937 19.728564 15.052726
463 15 2 16.075244 19.455555 14.645765
464 15 2 16.031840 18.538346 14.249729
465 15 2 16.529127 19.001182 14.983547
466 15 2 15.960099 19.360328 15.723291
467 15 2 16.204035 19.378330 14.753667
468 15 2 16.649279 18.539689 15.067415
469 15 2 15.654318 18.535849 14.967228
470 15 2 14.909718 17.870124 15.016024
471 15 2 14.744764 18.421677 14.198357
472 15 2 14.068727 18.669308 13.504344
473 15 2 13.627732 19.521915 13.784674
474 15 2 13.229969 18.728434 13.324052
475 15 2 12.986738 19.369371 14.052090
476 15 2 13.479442 18.500255 14.008721
477 15 2 13.450839 17.597448 13.579628
478 15 2 13.913650 17.119858 12.832826
479 15 2 14.882192 17.321323 12.686753
480 15 2 15.575852 17.741420 13.271863
481 16 2 7.620756 13.204932 18.273885
482 16 2 7.336519 12.619986 17.514249
483 16 2 7.910170 12.109207 16.873913
484 16 2 8.021921 12.096880 15.880253
485 16 2 7.693111 11.359413 15.290316
486 16 2 7.051207 11.365757 16.057074
487 16 2 6.908348 10.671289 16.762274
488 16 2 6.070894 10.429960 17.252610
489 16 2 5.116267 10.484845 16.959909
490 16 2 5.213837 11.224125 17.626201
491 16 2 5.024524 12.007125 17.033688
492 16 2 5.635712 12.350071 17.747017
493 16 2 6.186391 13.048047 18.204818
494 16 2 6.238765 14.024092 17.993643
495 16 2 5.408063 14.312104 17.517214
496 16 2 5.967242 13.931734 18.253854
497 16 2 5.684332 14.890662 18.274291
498 16 2 5.273233 14.152915 18.809760
499 16 2 4.628789 14.133442 19.574164
500 16 2 4.874087 14.825173 20.253381
501 16 2 5.279470 14.769548 21.165834
502 16 2 5.173531 14.979719 20.193926
503 16 2 4.627990 15.408637 20.913937
504 16 2 4.744306 16.053155 20.158247
505 16 2 5.139733 16.226107 19.256180
506 16 2 5.611291 17.094489 19.102734
507 16 2 5.260292 18.000671 18.866863
508 16 2 5.889714 18.776425 18.821775
509 16 2 6.527931 18.997465 18.084332
510 16 2 5.756612 19.204334 17.482442
511 16 2 4.970892 19.659804 17.901000
512 16 2 5.382356 19.348398 17.044423
513 17 2 15.655971 18.735428 11.091337
514 17 2 15.423591 19.134855 11.978161
515 17 2 15.773026 18.198421 12.009564
516 17 2 15.993671 19.082115 11.596769
517 17 2 16.952924 19.306699 11.425317
518 17 2 17.191641 19.713274 12.307196
519 17 2 16.239795 19.986266 12.446715
520 17 2 15.573377 19.478208 12.992390
521 17 2 15.489928 19.990223 13.847304
522 17 2 16.073103 20.134664 13.047902
523 17 2 15.276353 20.141949 12.443637
524 17 2 15.888483 20.336799 13.210012
525 17 2 15.462372 21.024689 12.622443
526 17 2 15.963015 20.409584 13.231543
527 17 2 16.203596 21.319741 13.568787
528 17 2 15.608644 0.251308 13.059338
529 17 2 15.502710 0.804449 13.885663
530 17 2 15.577340 1.787448 13.717906
531 17 2 15.471478 2.025459 12.752430
532 17 2 15.350223 1.873464 13.733345
533 17 2 16.064600 1.482480 14.313687
534 17 2 16.611860 2.223291 14.703182
535 17 2 15.865295 2.874632 14.838810
536 17 2 15.224700 2.127755 14.660448
537 17 2 14.601417 2.848971 14.962715
538 17 2 14.893381 1.903331 14.819462
539 17 2 13.956012 1.555480 14.801084
540 17 2 14.830650 1.933643 14.497768
541 17 2 15.570529 1.491166 15.004514
542 17 2 15.474935 1.055159 15.899366
543 17 2 15.831250 0.882672 14.981059
544 17 2 16.200252 1.385251 15.762886
545 18 2 3.824294 14.025876 11.123469
546 18 2 3.700055 13.033804 11.142355
547 18 2 4.227225 12.614568 11.881498
548 18 2 4.571900 13.550429 11.954732
549 18 2 3.887105 14.235751 12.202500
550 18 2 3.207160 13.891220 11.555219
551 18 2 4.199625 13.807838 11.465441
552 18 2 4.677656 13.016079 11.085173
553 18 2 4.044975 12.915281 11.852998
554 18 2 4.458209 12.116749 11.415294
555 18 2 3.963220 11.590960 10.723534
556 18 2 4.539857 12.107814 11.356268
557 18 2 4.573563 12.811942 12.065541
558 18 2 4.005013 12.110495 12.495334
559 18 2 3.617551 11.530116 11.779070
560 18 2 4.074277 10.650278 11.647594
561 18 2 4.916459 10.708083 12.183679
562 18 2 4.280965 11.298613 11.686265
563 18 2 4.739435 10.436705 11.902872
564 18 2 3.872816 10.479944 12.399966
565 18 2 3.492667 10.875480 13.236051
566 18 2 2.921386 10.071525 13.401259
567 18 2 1.959144 10.277739 13.223587
568 18 2 1.508101 9.896716 12.416505
569 18 2 1.406848 8.953467 12.732780
570 18 2 1.643628 9.253241 13.656939
571 18 2 1.343824 8.676697 12.896864
572 18 2 0.705100 8.058905 12.438208
573 18 2 1.486979 7.807671 11.867641
574 18 2 1.187394 6.979006 11.394816
575 18 2 0.615072 6.728918 12.175779
576 18 2 1.460330 6.241226 11.957386
577 19 2 6.069484 16.999705 12.085876
578 19 2 6.334225 17.863702 11.657599
579 19 2 6.378775 17.765912 12.651809
580 19 2 5.938422 17.350596 11.855818
581 19 2 5.514224 17.160568 10.970411
582 19 2 5.840602 17.274632 10.032079
583 19 2 6.686594 17.499036 10.515752
584 19 2 6.167182 17.028857 11.229295
585 19 2 5.365289 16.942826 11.820536
586 19 2 5.107082 17.905778 11.742738
587 19 2 4.670481 17.034366 11.966391
588 19 2 5.428979 16.419353 12.181892
589 19 2 5.493481 17.417173 12.195815
590 19 2 5.295662 17.997877 12.985531
591 19 2 4.762695 18.781001 13.305941
592 19 2 5.117027 18.391490 12.455806
593 19 2 4.917645 18.914325 13.284595
594 19 2 3.976704 19.064727 13.587924
595 19 2 3.282664 18.820117 14.265032
596 19 2 2.502197 19.067328 14.839277
597 19 2 2.238698 19.383117 15.750784
598 19 2 1.360940 19.257488 15.288444
599 19 2 1.625932 18.301383 15.413518
600 19 2 2.246749 18.815714 16.005169
601 19 2 1.721624 18.238994 16.630980
602 19 2 1.730926 19.091562 17.153513
603 19 2 2.153602 19.997840 17.151098
604 19 2 1.493906 19.266868 17.325683
605 19 2 1.133378 18.350749 17.150336
606 19 2 0.137197 18.263662 17.156532
607 19 2 0.914885 17.636598 17.201166
608 19 2 0.608110 17.727314 18.148615
609 20 2 9.483890 2.594284 16.900005
610 20 2 8.900224 1.815680 17.130461
611 20 2 9.860551 1.730836 16.864803
612 20 2 9.483575 2.641238 17.035263
613 20 2 9.070506 1.732517 16.975253
614 20 2 9.075076 2.676382 16.644954
615 20 2 9.478490 3.175705 15.878185
616 20 2 10.377224 3.146204 15.440684
617 20 2 10.798447 2.849773 16.297830
618 20 2 10.376727 3.415002 17.006821
619 20 2 9.948038 4.217141 16.591129
620 20 2 9.843556 3.363974 17.102198
621 20 2 10.462828 3.279881 17.882858
622 20 2 11.387426 2.936149 18.047078
623 20 2 10.953253 3.212320 18.904530
624 20 2 11.052936 4.115549 19.321951
625 20 2 10.588646 4.343256 18.466040
626 20 2 11.058589 5.004717 17.881554
627 20 2 11.419543 4.452901 18.633360
628 20 2 11.729124 5.055430 19.368968
629 20 2 12.405984 5.786319 19.456502
630 20 2 11.886173 5.645806 20.299148
631 20 2 11.797806 4.681243 20.050532
632 20 2 10.981669 4.445493 20.578114
633 20 2 11.648499 3.918038 20.051683
634 20 2 11.027240 3.152729 19.883341
635 20 2 10.625783 2.713610 19.079595
636 20 2 10.898506 3.030001 19.988176
637 20 2 11.115921 2.394619 19.247217
638 20 2 11.289339 1.429965 19.048802
639 20 2 12.101553 1.064643 18.593996
640 20 2 11.693325 0.715493 19.437468
