#Initial configuration
6400 atoms
2 atom types
6200 bonds
1 bond types
0.0 18.566355 xlo xhi
0.0 18.566355 ylo yhi
0.0 18.566355 zlo zhi
0 0 0 xy xz yz

Atoms # bond

1 1 1 0.430606 3.231655 15.180356
2 1 1 0.363650 4.227443 15.117715
3 1 1 0.294689 3.647130 15.929184
4 1 1 18.253999 3.061424 15.392114
5 1 1 17.557577 3.701489 15.067595
6 1 1 16.973289 4.011083 15.817767
7 1 1 17.456267 4.861740 16.025412
8 1 1 16.572512 4.396850 15.971975
9 1 1 16.485026 3.477792 15.587687
10 1 1 15.651374 2.946980 15.435162
11 1 1 15.741079 2.134953 14.858477
12 1 1 15.695292 2.546459 13.948221
13 1 1 16.289411 1.745940 13.869530
14 1 1 16.781879 2.297649 13.196409
15 1 1 16.863327 3.269171 13.418921
16 1 1 16.380758 3.344039 12.546269
17 1 1 15.512683 2.913656 12.298849
18 1 1 14.618509 3.360517 12.326562
19 1 1 13.862887 2.877342 12.768802
20 1 1 12.869194 2.979965 12.814002
21 1 1 12.636324 3.270279 13.742166
22 1 1 11.812068 3.490286 14.263893
23 1 1 12.220914 3.692831 15.153736
24 1 1 12.375155 3.391905 16.094827
25 1 1 11.543114 3.937951 15.997147
26 1 1 11.037429 3.979143 16.858882
27 1 1 10.614642 3.212489 16.375671
28 1 1 11.532298 3.012901 16.719286
29 1 1 10.868362 3.698679 17.017441
30 1 1 11.698063 3.914356 17.532300
31 1 1 12.684883 4.068791 17.580632
32 1 1 12.127572 4.844253 17.877386
33 2 1 14.639213 12.936491 12.891969
34 2 1 14.398319 12.218665 12.238750
35 2 1 14.392556 11.232535 12.072873
36 2 1 14.899639 12.089298 11.978938
37 2 1 14.983497 11.153487 12.321322
38 2 1 15.406152 10.317977 11.970203
39 2 1 15.541016 10.916080 12.760193
40 2 1 15.758459 10.387662 13.580859
41 2 1 16.143408 11.244597 13.923608
42 2 1 15.373245 11.878524 13.994224
43 2 1 14.398551 11.655269 14.005587
44 2 1 14.658973 11.033936 14.744591
45 2 1 14.383307 11.195256 15.692211
46 2 1 14.669575 10.268027 15.933658
47 2 1 15.182933 9.472185 16.254750
48 2 1 15.259570 8.972155 15.392140
49 2 1 15.233451 9.715967 16.060018
50 2 1 15.459096 9.078963 16.797113
51 2 1 15.301574 8.200437 16.346138
52 2 1 14.929927 8.767048 17.081550
53 2 1 14.802234 8.113609 16.335419
54 2 1 15.157761 7.206831 16.108802
55 2 1 14.738302 6.565489 15.466358
56 2 1 14.617099 5.796337 16.093825
57 2 1 15.264856 6.508639 15.823571
58 2 1 15.004767 5.605129 16.164193
59 2 1 15.652540 5.394899 16.896446
60 2 1 16.170330 6.107126 16.422498
61 2 1 16.388120 5.190979 16.759013
62 2 1 15.657828 4.646152 17.171128
63 2 1 15.981685 5.164661 16.379759
64 2 1 15.079516 5.167644 15.948387
65 3 1 4.779973 8.930363 16.878015
66 3 1 4.777105 8.983015 17.876624
67 3 1 4.024661 8.904606 18.530596
68 3 1 4.090256 9.462863 0.791312
69 3 1 3.384228 10.034720 0.373574
70 3 1 4.308888 9.669999 0.483038
71 3 1 4.932782 9.561978 18.275385
72 3 1 4.333008 10.304799 17.977916
73 3 1 5.012915 10.763987 17.406189
74 3 1 5.919936 10.816393 17.824002
75 3 1 5.049567 10.510217 18.209637
76 3 1 4.978850 9.606119 0.064714
77 3 1 5.114315 9.292610 1.004588
78 3 1 5.694769 9.447003 1.804110
79 3 1 6.058011 10.162275 2.401137
80 3 1 6.055341 10.731629 1.579049
81 3 1 6.558126 11.328958 2.203873
82 3 1 6.925162 11.650927 3.076582
83 3 1 6.716216 12.405269 3.698924
84 3 1 7.668731 12.584753 3.944893
85 3 1 7.203412 12.547856 3.060519
86 3 1 7.869067 11.976922 3.541078
87 3 1 7.022030 11.464158 3.401066
88 3 1 6.932712 12.448338 3.248054
89 3 1 5.976089 12.301992 3.499960
90 3 1 6.452903 12.973489 4.067181
91 3 1 5.746390 13.370410 4.653094
92 3 1 5.620627 14.338060 4.434379
93 3 1 6.590946 14.235626 4.215318
94 3 1 6.538576 14.201840 3.217262
95 3 1 6.890381 13.924900 4.111431
96 3 1 7.305414 13.130961 3.667124
97 4 1 13.992259 4.570136 12.538420
98 4 1 14.981533 4.566390 12.392393
99 4 1 15.120261 5.084311 13.236497
100 4 1 16.051678 5.447896 13.252857
101 4 1 16.850375 5.385938 12.654321
102 4 1 16.048334 4.842756 12.902684
103 4 1 16.384939 5.520144 12.248587
104 4 1 16.005612 5.886665 11.399015
105 4 1 15.570471 6.784645 11.333564
106 4 1 16.357949 6.812533 11.949275
107 4 1 15.972851 6.951731 11.036957
108 4 1 16.914152 6.914419 10.701458
109 4 1 17.065872 7.869687 10.955316
110 4 1 16.472369 7.461805 10.261496
111 4 1 17.027334 8.233914 9.951879
112 4 1 16.226948 8.254617 10.551007
113 4 1 15.578782 8.877667 10.988831
114 4 1 15.492904 9.573643 11.701742
115 4 1 14.999391 8.714443 11.836723
116 4 1 15.047113 9.677457 11.571532
117 4 1 15.299723 10.550255 11.153906
118 4 1 15.282999 10.283479 12.117519
119 4 1 15.643695 11.011623 11.534677
120 4 1 15.314949 10.383983 12.240365
121 4 1 15.843293 9.811714 11.613180
122 4 1 14.905458 9.754576 11.270835
123 4 1 15.534727 10.151498 10.602648
124 4 1 15.199728 10.176914 11.544524
125 4 1 15.863440 10.095836 10.800942
126 4 1 16.568899 10.804587 10.801068
127 4 1 15.874357 11.406152 11.195697
128 4 1 15.554445 12.341781 11.046519
129 5 1 13.440569 0.510558 16.676843
130 5 1 13.708269 0.957294 15.823167
131 5 1 14.478132 0.489614 16.257433
132 5 1 14.463676 1.444845 16.552941
133 5 1 15.014920 1.309679 15.729618
134 5 1 15.809968 1.291751 16.335899
135 5 1 15.731624 0.510427 15.716711
136 5 1 16.136878 1.076048 14.998490
137 5 1 16.897754 0.548025 14.621319
138 5 1 16.132440 0.547903 13.977662
139 5 1 15.915994 0.458587 13.005461
140 5 1 14.948665 0.245680 12.867824
141 5 1 14.634185 18.415233 13.730175
142 5 1 15.565442 0.156886 13.535520
143 5 1 16.211196 0.123051 14.298316
144 5 1 16.666697 0.599729 13.546454
145 5 1 16.638216 0.125575 12.666473
146 5 1 16.377352 18.150273 13.465571
147 5 1 17.116744 17.558143 13.145132
148 5 1 17.971639 17.228814 13.546002
149 5 1 18.455809 16.374435 13.357279
150 5 1 0.328478 15.599677 12.902297
151 5 1 18.222830 15.636827 12.162680
152 5 1 17.814271 16.117786 12.938411
153 5 1 17.128526 15.503936 12.547333
154 5 1 18.107493 15.700795 12.600891
155 5 1 17.473406 16.193239 13.197071
156 5 1 17.891512 15.812680 12.372231
157 5 1 18.335891 14.932247 12.206808
158 5 1 0.367795 14.135965 12.296369
159 5 1 1.058680 14.756260 12.667735
160 5 1 1.602765 15.583559 12.527923
161 6 1 13.457884 10.053827 18.140701
162 6 1 12.974217 10.918233 18.003340
163 6 1 13.835529 10.451427 18.203922
164 6 1 14.468684 10.636342 17.452310
165 6 1 14.447507 10.837381 16.472956
166 6 1 15.297839 10.340009 16.644876
167 6 1 15.031037 10.938958 15.889842
168 6 1 15.582676 11.759277 15.738939
169 6 1 15.082084 10.894751 15.783688
170 6 1 15.731366 11.605451 16.054496
171 6 1 14.875373 11.139606 16.278692
172 6 1 14.922284 11.721056 17.090920
173 6 1 15.646935 11.031942 17.088915
174 6 1 15.310592 10.180824 16.685838
175 6 1 15.458306 11.060064 16.232940
176 6 1 16.430035 10.854020 16.117663
177 6 1 16.401498 10.782238 15.120651
178 6 1 17.387830 10.706870 15.267175
179 6 1 17.648906 11.366363 15.972091
180 6 1 18.028418 11.132285 16.867177
181 6 1 18.057167 12.087844 16.573781
182 6 1 17.136307 12.019112 16.189994
183 6 1 16.353059 12.499942 16.584106
184 6 1 16.478537 11.793201 17.280362
185 6 1 16.342937 11.631808 16.302832
186 6 1 16.786227 12.283306 15.687166
187 6 1 16.601039 12.543735 14.739599
188 6 1 16.467913 13.478910 15.067815
189 6 1 15.968054 12.978434 14.360945
190 6 1 15.551048 12.338186 13.715818
191 6 1 16.061039 12.075537 12.896718
192 6 1 16.656826 11.784353 13.645216
193 7 1 4.132127 0.888736 8.099766
194 7 1 4.683651 0.668970 8.904455
195 7 1 3.742108 0.621613 9.238001
196 7 1 3.119768 1.145404 9.819667
197 7 1 3.524192 1.218468 10.731316
198 7 1 4.090978 0.734096 10.064879
199 7 1 4.816727 1.392106 9.864099
200 7 1 4.914677 0.476041 9.475215
201 7 1 5.689801 18.432481 9.640098
202 7 1 5.787880 17.783498 10.394553
203 7 1 6.140960 0.120129 10.639400
204 7 1 5.326002 18.145397 10.431870
205 7 1 4.397160 18.224457 10.793812
206 7 1 5.053859 0.214276 10.284483
207 7 1 6.010934 0.238288 10.573325
208 7 1 5.286654 18.390596 11.124671
209 7 1 4.440371 17.857970 11.135466
210 7 1 4.583636 0.263532 10.948777
211 7 1 4.108784 0.566189 11.775164
212 7 1 4.648325 1.403803 11.689724
213 7 1 3.889016 0.944557 12.150750
214 7 1 3.653829 0.193861 12.768117
215 7 1 2.728598 0.201851 12.388797
216 7 1 3.722182 0.240337 12.495149
217 7 1 3.092099 18.050875 12.317005
218 7 1 3.425783 18.478638 13.157049
219 7 1 3.417467 0.194918 14.116240
220 7 1 3.422799 1.103790 13.699200
221 7 1 2.448207 1.327200 13.683109
222 7 1 1.651536 0.857798 14.063867
223 7 1 2.595389 1.067994 13.808995
224 7 1 2.496069 1.560679 12.944473
225 8 1 15.532063 10.509564 12.452810
226 8 1 14.703662 10.063009 12.114668
227 8 1 15.295978 10.595570 11.510069
228 8 1 16.226541 10.229440 11.511466
229 8 1 15.693198 10.842396 10.928515
230 8 1 14.870477 10.859109 10.360316
231 8 1 15.086705 10.269398 9.582186
232 8 1 14.146750 9.947888 9.696706
233 8 1 14.567245 9.330600 10.361642
234 8 1 15.433935 9.214050 9.876602
235 8 1 15.175032 8.438489 10.452340
236 8 1 14.484399 8.607729 9.749215
237 8 1 15.470929 8.713486 9.874018
238 8 1 14.904039 9.032651 10.633471
239 8 1 15.787960 9.077842 11.098918
240 8 1 14.936921 9.307217 10.626563
241 8 1 15.883111 9.598557 10.485691
242 8 1 16.535755 10.054889 9.880863
243 8 1 17.069841 10.664914 9.295523
244 8 1 17.571497 11.272324 9.911472
245 8 1 16.851255 11.079168 10.577762
246 8 1 17.834672 11.173121 10.732889
247 8 1 16.907230 11.087314 10.368897
248 8 1 17.367023 11.968892 10.262078
249 8 1 18.026535 12.077237 11.005922
250 8 1 0.112238 12.273777 11.738174
251 8 1 18.189930 11.412457 11.599117
252 8 1 18.444432 10.447787 11.531002
253 8 1 18.009570 10.719994 10.672632
254 8 1 0.239136 10.332918 11.138123
255 8 1 0.277890 11.323158 11.004241
256 8 1 18.083700 10.681025 10.908132
257 9 1 12.783094 15.910862 16.250357
258 9 1 12.056525 15.373058 15.822730
259 9 1 11.371644 15.184805 16.526646
260 9 1 11.289284 16.169010 16.683353
261 9 1 11.179520 15.190889 16.860075
262 9 1 10.994864 14.338122 17.348636
263 9 1 11.591829 14.758623 18.031872
264 9 1 12.181566 14.251215 0.093806
265 9 1 12.798667 14.996734 18.408391
266 9 1 12.736690 15.895056 17.973447
267 9 1 12.436313 14.961055 17.780021
268 9 1 11.876678 15.343182 18.515403
269 9 1 11.686322 14.755174 0.735185
270 9 1 11.922353 13.944332 0.199625
271 9 1 11.584733 14.802648 18.379579
272 9 1 11.436027 14.381125 17.485037
273 9 1 10.952268 13.820210 18.156864
274 9 1 11.270634 14.021501 17.230514
275 9 1 10.486821 13.666628 17.740124
276 9 1 9.879578 13.180041 18.368207
277 9 1 9.527987 13.802551 17.669018
278 9 1 9.708656 14.194268 0.004836
279 9 1 9.629467 14.620373 17.669990
280 9 1 9.214788 14.165102 16.882101
281 9 1 8.942164 13.241556 17.151804
282 9 1 8.001800 12.920779 17.265017
283 9 1 8.392554 12.192177 17.827557
284 9 1 8.021462 11.451616 17.267325
285 9 1 8.518113 10.749229 17.777217
286 9 1 7.968727 10.938459 16.963358
287 9 1 7.435291 11.738383 16.688461
288 9 1 8.182646 11.869425 17.339835
289 10 1 14.862104 5.000608 9.415769
290 10 1 14.279759 5.186975 8.624478
291 10 1 14.427138 5.677740 9.483214
292 10 1 14.951807 6.320540 10.041364
293 10 1 15.291179 5.476243 9.626649
294 10 1 15.114550 6.447603 9.467711
295 10 1 15.257379 5.545633 9.875203
296 10 1 15.390129 6.536770 9.880347
297 10 1 15.459532 5.541086 9.818723
298 10 1 15.231265 6.288362 9.194645
299 10 1 14.417594 6.853748 9.059449
300 10 1 14.731844 5.964076 8.728192
301 10 1 15.690804 5.745033 8.548149
302 10 1 14.965422 6.385071 8.294825
303 10 1 13.982322 6.292266 8.137026
304 10 1 14.162018 7.220962 7.812629
305 10 1 13.953314 6.353379 8.264007
306 10 1 13.946122 6.103768 9.232326
307 10 1 14.176219 7.065140 9.081266
308 10 1 13.333092 6.672590 8.713786
309 10 1 13.155068 5.909346 9.334886
310 10 1 12.423441 6.345405 8.810886
311 10 1 11.905195 5.868689 8.100842
312 10 1 12.356562 6.757865 8.175905
313 10 1 12.633052 6.985840 7.242320
314 10 1 12.232922 7.312283 8.098667
315 10 1 12.072406 7.805946 7.243956
316 10 1 11.956065 8.705790 7.664368
317 10 1 12.630739 7.971193 7.736351
318 10 1 12.075166 7.957965 6.904989
319 10 1 11.396761 8.019920 6.172917
320 10 1 10.709567 8.704264 6.416715
321 11 1 10.103868 12.583130 16.459751
322 11 1 9.354870 12.417986 17.101412
323 11 1 9.149769 13.185887 16.494567
324 11 1 8.630817 13.237590 15.641328
325 11 1 7.885124 13.845466 15.914143
326 11 1 8.145512 14.799220 16.064314
327 11 1 9.124267 14.656744 16.211755
328 11 1 8.712346 13.802792 15.893814
329 11 1 9.404687 14.048184 16.572376
330 11 1 8.561574 13.623576 16.242424
331 11 1 8.750069 12.767220 15.761671
332 11 1 8.318978 12.195577 16.459800
333 11 1 8.220951 13.031360 17.000038
334 11 1 7.264505 12.741743 17.036572
335 11 1 6.829469 12.128370 16.377393
336 11 1 7.459430 12.695335 15.846639
337 11 1 6.881358 12.231703 16.518114
338 11 1 7.706124 11.869228 16.084094
339 11 1 7.707410 10.899137 16.326830
340 11 1 8.144761 11.334340 17.113799
341 11 1 7.271635 10.896890 17.328946
342 11 1 8.174109 10.495130 17.173609
343 11 1 8.336063 11.089358 16.385787
344 11 1 8.129311 11.574743 15.536284
345 11 1 7.730273 11.344321 16.423794
346 11 1 7.592623 10.558919 17.027280
347 11 1 7.286364 10.253007 16.125823
348 11 1 8.093203 9.676563 16.255144
349 11 1 8.311538 8.883146 16.823316
350 11 1 8.689994 8.922239 15.898522
351 11 1 8.223393 8.706610 15.040742
352 11 1 9.012228 8.973845 14.487276
353 12 1 10.018377 0.768003 15.362450
354 12 1 9.791941 18.486873 14.882350
355 12 1 9.822914 0.894203 15.108135
356 12 1 10.712885 1.196287 14.766526
357 12 1 10.363766 0.364983 14.334035
358 12 1 10.550668 18.252369 13.624058
359 12 1 11.301645 17.593767 13.576347
360 12 1 11.380137 17.653077 12.581198
361 12 1 11.930424 18.164476 13.241239
362 12 1 12.832242 0.011184 13.114343
363 12 1 13.703820 18.325104 12.694069
364 12 1 12.803799 18.554896 12.323719
365 12 1 13.310107 17.693938 12.372763
366 12 1 13.391831 17.529342 13.355732
367 12 1 13.852926 17.102890 14.133890
368 12 1 14.577806 16.431858 13.978116
369 12 1 15.283834 16.070614 13.368996
370 12 1 15.180471 17.058562 13.484215
371 12 1 16.008969 16.509297 13.593301
372 12 1 16.386277 17.288095 13.092190
373 12 1 16.700269 16.614450 12.423152
374 12 1 17.307774 17.408348 12.397424
375 12 1 17.346689 18.405933 12.339891
376 12 1 18.138445 18.304614 11.737514
377 12 1 0.255870 0.407386 11.446461
378 12 1 17.917963 18.565706 11.320695
379 12 1 17.142529 0.611165 11.476851
380 12 1 16.677768 1.391820 11.894673
381 12 1 17.426386 1.202548 12.530084
382 12 1 16.606471 0.813964 12.109677
383 12 1 16.281428 1.727946 12.352543
384 12 1 16.794758 0.903251 12.115118
385 13 1 13.594010 4.061432 1.492722
386 13 1 14.186787 3.265271 1.371295
387 13 1 14.750977 3.847341 1.956858
388 13 1 14.254731 3.012564 2.195365
389 13 1 15.020102 3.622844 1.991000
390 13 1 14.737947 3.284975 1.093095
391 13 1 15.208281 2.416428 0.936850
392 13 1 15.393134 2.317816 18.525399
393 13 1 16.290397 2.748454 0.056357
394 13 1 15.779140 1.889760 0.091867
395 13 1 16.170278 1.617871 17.778968
396 13 1 15.693496 2.490847 17.881890
397 13 1 16.412737 3.154264 17.675566
398 13 1 16.159277 2.383987 18.260742
399 13 1 16.499474 2.762014 17.399719
400 13 1 17.419217 2.610982 17.037419
401 13 1 17.244062 2.699942 16.056906
402 13 1 16.480980 2.959320 15.464935
403 13 1 16.875318 3.271526 16.329241
404 13 1 15.986851 3.275319 16.788164
405 13 1 16.564261 3.711660 17.478240
406 13 1 15.717962 3.182506 17.416810
407 13 1 15.611556 2.267701 17.806440
408 13 1 16.185818 2.623143 18.543925
409 13 1 16.870708 1.899925 0.066351
410 13 1 17.304775 1.412253 0.823821
411 13 1 16.968241 2.301621 1.133286
412 13 1 16.492263 1.445932 0.930207
413 13 1 16.775445 0.607771 0.464059
414 13 1 16.127758 1.038946 1.092223
415 13 1 15.801538 0.662477 0.225130
416 13 1 15.903345 18.469162 0.867420
417 14 1 5.685639 17.666404 4.772087
418 14 1 6.375340 18.366460 4.587064
419 14 1 6.871209 17.498065 4.589128
420 14 1 6.486826 17.140498 3.738015
421 14 1 7.165942 16.417465 3.611427
422 14 1 7.244166 16.354348 2.616492
423 14 1 7.040274 16.783331 3.496493
424 14 1 8.039650 16.748723 3.489461
425 14 1 8.403999 17.045216 4.372263
426 14 1 8.525638 17.790185 5.028180
427 14 1 9.492325 17.672008 4.801129
428 14 1 9.056999 18.147005 5.565896
429 14 1 8.438046 0.145061 6.112098
430 14 1 8.132086 0.178153 5.160629
431 14 1 8.287634 0.658080 6.024038
432 14 1 9.259726 0.434467 5.953079
433 14 1 9.031531 18.027233 5.945889
434 14 1 9.876243 18.444944 6.280520
435 14 1 9.502648 17.517525 6.262644
436 14 1 10.493654 17.420355 6.170633
437 14 1 9.602401 17.094243 5.855484
438 14 1 10.348537 17.736998 6.029115
439 14 1 9.584411 17.319669 5.537233
440 14 1 9.883140 17.967955 4.836886
441 14 1 9.843612 18.520559 4.004380
442 14 1 10.202348 0.810530 4.375882
443 14 1 10.173994 0.731904 3.379381
444 14 1 10.128108 1.596269 2.878614
445 14 1 10.858532 1.477331 3.551172
446 14 1 10.351975 0.705481 3.166922
447 14 1 11.240093 0.337813 3.442722
448 14 1 11.198065 1.336926 3.440258
449 15 1 11.861237 9.011670 5.824661
450 15 1 11.484955 8.734396 6.708703
451 15 1 11.659526 9.334211 7.489567
452 15 1 12.652067 9.320933 7.368380
453 15 1 12.168611 9.283291 8.242939
454 15 1 11.490996 10.018681 8.236759
455 15 1 10.771333 10.704118 8.126024
456 15 1 10.985424 10.525692 7.165644
457 15 1 11.913612 10.508326 6.793937
458 15 1 12.600409 10.390277 7.511135
459 15 1 11.803414 9.819296 7.708062
460 15 1 11.297621 10.645430 7.956409
461 15 1 11.368112 9.959795 7.231885
462 15 1 11.249418 10.952153 7.198181
463 15 1 11.082263 10.109385 7.709845
464 15 1 10.695482 11.014877 7.884443
465 15 1 9.747917 10.697301 7.848854
466 15 1 9.596543 10.266492 8.738511
467 15 1 9.289651 10.184009 7.790347
468 15 1 9.566983 11.018523 8.266450
469 15 1 9.440816 11.909193 7.829656
470 15 1 9.305420 10.957441 7.554272
471 15 1 9.763905 10.454040 8.286651
472 15 1 9.829614 10.519808 7.290982
473 15 1 9.214347 11.027527 6.687933
474 15 1 10.114554 10.617946 6.540047
475 15 1 9.652702 10.149520 7.293221
476 15 1 10.093753 10.906991 7.774586
477 15 1 9.606257 11.429558 8.474066
478 15 1 9.632147 12.367403 8.127977
479 15 1 9.652960 12.498386 7.136811
480 15 1 9.150313 11.845370 7.703305
481 16 1 9.716316 17.512523 2.968158
482 16 1 8.825118 17.519037 3.421725
483 16 1 9.522799 17.961924 3.984833
484 16 1 9.297511 0.250851 4.451457
485 16 1 9.978838 18.108040 4.270139
486 16 1 9.037487 18.419658 4.140711
487 16 1 9.967307 18.326445 3.784697
488 16 1 9.331074 0.406371 4.206039
489 16 1 9.878673 1.203321 3.951078
490 16 1 10.327456 1.575946 4.763325
491 16 1 9.399720 1.747599 4.431903
492 16 1 8.482336 1.376419 4.575541
493 16 1 7.769452 1.068660 3.945397
494 16 1 6.804832 1.051587 3.682306
495 16 1 5.933765 0.881346 4.143024
496 16 1 5.976109 18.548591 3.707356
497 16 1 5.978135 0.211117 4.680809
498 16 1 6.173635 17.839357 4.394939
499 16 1 6.265514 18.205523 3.468937
500 16 1 6.974219 17.501817 3.418588
501 16 1 6.683707 18.408540 3.724296
502 16 1 6.122563 0.184252 2.970567
503 16 1 6.313711 17.814185 3.264804
504 16 1 7.081139 18.426053 3.073305
505 16 1 6.548969 0.348375 3.764672
506 16 1 6.736197 0.024128 2.837413
507 16 1 6.101859 17.819391 2.892462
508 16 1 5.126238 17.927130 2.701267
509 16 1 5.370314 17.438921 1.863366
510 16 1 5.138530 17.616206 0.906890
511 16 1 4.144419 17.677666 0.817641
512 16 1 3.721969 18.430935 1.321746
513 17 1 12.940872 11.273009 15.027306
514 17 1 12.609916 12.193805 14.820902
515 17 1 11.749708 11.951255 14.372337
516 17 1 12.395081 12.062295 15.128091
517 17 1 12.441268 12.102086 14.129951
518 17 1 13.421346 12.295009 14.177164
519 17 1 13.623714 11.497885 13.608270
520 17 1 13.816778 12.219207 12.943122
521 17 1 13.687260 11.438817 12.331390
522 17 1 14.504633 11.584156 11.773916
523 17 1 15.036965 11.339215 10.963591
524 17 1 15.008780 12.033479 11.682759
525 17 1 14.094455 11.752073 11.391522
526 17 1 13.431751 12.039037 10.699803
527 17 1 14.239956 12.574958 10.455684
528 17 1 14.887184 13.283759 10.736213
529 17 1 13.954440 12.957780 10.582181
530 17 1 14.540786 13.659354 10.987140
531 17 1 15.222662 14.025654 10.353997
532 17 1 14.969600 14.828047 10.894483
533 17 1 14.588689 15.260607 11.711672
534 17 1 15.489520 15.207015 11.280824
535 17 1 15.719192 14.239706 11.388363
536 17 1 16.061532 13.311538 11.534338
537 17 1 15.465744 14.110225 11.449864
538 17 1 15.219385 13.278522 10.952292
539 17 1 15.539391 12.374650 11.236213
540 17 1 15.257284 11.982482 10.360645
541 17 1 15.192991 11.119495 10.861764
542 17 1 15.060134 10.452259 11.594666
543 17 1 15.691628 10.950298 11.000383
544 17 1 14.819787 10.854537 10.520047
545 18 1 14.925346 10.592312 0.692428
546 18 1 15.320911 9.688222 0.530722
547 18 1 15.098305 9.770009 1.502194
548 18 1 15.923699 10.139076 1.929410
549 18 1 15.954870 9.973250 2.915073
550 18 1 15.809656 9.061148 3.298457
551 18 1 16.750131 9.090175 2.959834
552 18 1 16.911581 9.440562 3.882419
553 18 1 17.819102 9.273091 3.497243
554 18 1 17.114767 9.908231 3.180207
555 18 1 17.385442 10.383110 4.017599
556 18 1 16.840043 10.129965 3.218564
557 18 1 17.063843 9.250314 3.638240
558 18 1 16.513239 9.755539 2.973724
559 18 1 17.428772 9.522913 2.645570
560 18 1 16.999510 8.977813 1.925431
561 18 1 16.652608 9.727156 2.489473
562 18 1 16.522567 8.751565 2.312523
563 18 1 15.665463 8.635520 1.810620
564 18 1 15.931211 7.990797 2.527356
565 18 1 15.741027 8.105934 3.502329
566 18 1 15.723277 8.556169 2.609596
567 18 1 15.431380 9.106959 3.391533
568 18 1 14.621649 9.689837 3.459271
569 18 1 14.804795 9.931856 4.412101
570 18 1 15.052444 10.791518 4.858925
571 18 1 14.740972 11.124228 5.749031
572 18 1 14.231030 11.097046 6.608811
573 18 1 15.211376 11.229265 6.462389
574 18 1 15.875729 11.060037 5.734380
575 18 1 15.700660 11.520170 4.863961
576 18 1 15.498739 11.160541 5.774947
577 19 1 16.576847 8.629485 12.124272
578 19 1 15.675350 9.048294 12.015173
579 19 1 15.475684 8.226866 11.480955
580 19 1 15.550293 8.927331 10.771179
581 19 1 16.187106 8.216025 11.068691
582 19 1 16.131963 8.175894 10.071019
583 19 1 15.475805 8.628455 10.674878
584 19 1 15.285265 8.859962 9.720887
585 19 1 15.116222 8.192575 10.446159
586 19 1 14.691462 7.313609 10.662948
587 19 1 14.796579 8.002421 9.945670
588 19 1 15.659913 8.248460 9.505081
589 19 1 16.248903 7.825327 10.193594
590 19 1 16.582235 8.124475 11.087686
591 19 1 16.965451 7.964618 11.997406
592 19 1 16.713408 7.206005 11.396590
593 19 1 16.884655 8.165126 11.171290
594 19 1 16.614162 9.074932 10.856509
595 19 1 16.656873 8.416187 10.105355
596 19 1 16.319279 8.291445 9.172366
597 19 1 16.965021 7.578575 8.898808
598 19 1 17.934596 7.341505 8.837795
599 19 1 0.364155 7.321653 8.749705
600 19 1 18.308280 7.695277 8.061785
601 19 1 0.674192 7.960516 8.307806
602 19 1 1.198989 7.160209 8.597799
603 19 1 0.814571 7.816110 9.247427
604 19 1 1.382481 7.194614 9.787076
605 19 1 1.337742 6.690654 10.649643
606 19 1 0.934386 7.323367 9.988600
607 19 1 1.343881 6.869878 10.780220
608 19 1 1.571191 5.896648 10.814174
609 20 1 6.606532 7.145629 0.062853
610 20 1 5.644595 7.417709 0.088346
611 20 1 4.966735 7.383913 0.822760
612 20 1 4.020975 7.461536 0.507302
613 20 1 4.201755 7.792590 18.147524
614 20 1 4.969139 7.985381 0.192686
615 20 1 4.534594 8.473193 0.949793
616 20 1 5.202330 9.035232 0.461694
617 20 1 4.342933 9.115874 18.523141
618 20 1 5.014108 8.443459 18.211081
619 20 1 4.861466 8.035410 0.544835
620 20 1 5.154557 7.293571 18.508054
621 20 1 5.663263 7.743283 0.675850
622 20 1 6.546560 7.598817 0.229850
623 20 1 6.814319 6.687781 18.482646
624 20 1 7.683301 6.321621 0.249151
625 20 1 7.249537 6.283022 17.915307
626 20 1 7.218165 7.081553 17.314171
627 20 1 7.272189 8.078200 17.252710
628 20 1 6.449864 7.552601 17.034702
629 20 1 7.168330 7.868122 17.654584
630 20 1 7.154586 7.813668 16.656162
631 20 1 7.957138 7.218450 16.615838
632 20 1 8.211032 6.321746 16.978412
633 20 1 7.733507 6.958961 16.373492
634 20 1 7.277030 6.121060 16.672742
635 20 1 7.449869 6.398807 17.617720
636 20 1 6.970242 5.541044 17.432787
637 20 1 6.603642 4.951776 16.712809
638 20 1 7.405524 4.383066 16.895985
639 20 1 7.216768 4.931138 16.081130
640 20 1 7.497577 3.974641 16.002009
641 21 1 12.792029 11.940863 12.249729
642 21 1 12.562153 12.911884 12.184339
643 21 1 13.245447 12.399409 11.664263
644 21 1 12.684503 13.075499 12.142012
645 21 1 12.318212 13.227835 11.224066
646 21 1 13.012175 13.773702 10.754550
647 21 1 12.887005 14.610542 11.287496
648 21 1 11.967505 14.223411 11.219312
649 21 1 11.574186 13.345156 10.947339
650 21 1 10.870954 13.615124 11.605050
651 21 1 11.475612 14.411094 11.633670
652 21 1 11.462399 13.486735 11.252377
653 21 1 11.299461 14.373266 10.819348
654 21 1 10.912825 14.121599 9.932119
655 21 1 10.339702 13.712140 9.222279
656 21 1 10.519953 12.983684 8.561323
657 21 1 11.208081 13.556143 8.115486
658 21 1 10.803230 14.423904 8.403731
659 21 1 10.517159 15.109858 7.734678
660 21 1 9.539123 15.282411 7.617761
661 21 1 10.423745 15.515608 7.213951
662 21 1 10.581880 15.682219 6.240691
663 21 1 10.354236 15.759931 7.211330
664 21 1 10.020065 15.268656 8.015679
665 21 1 9.742511 14.875970 8.892470
666 21 1 9.822435 15.184788 9.840227
667 21 1 9.096798 15.840303 9.631058
668 21 1 9.327718 15.362805 8.783313
669 21 1 8.935118 15.798730 9.593150
670 21 1 8.082587 15.295892 9.735783
671 21 1 7.838725 16.094187 9.185097
672 21 1 7.872493 15.751932 8.246097
673 22 1 0.790103 3.622696 14.955430
674 22 1 0.125285 2.931886 14.671177
675 22 1 18.257556 2.403920 15.401124
676 22 1 0.474069 2.528379 14.791511
677 22 1 0.069490 2.024591 14.028285
678 22 1 18.112262 2.006721 14.880072
679 22 1 17.294785 1.816265 14.336511
680 22 1 17.557390 1.093993 13.696697
681 22 1 17.816696 2.053999 13.802290
682 22 1 18.172785 1.359810 13.176747
683 22 1 0.349010 0.926159 12.666336
684 22 1 17.942642 0.898802 12.896686
685 22 1 17.184818 0.283446 12.679801
686 22 1 17.213176 18.436295 13.589861
687 22 1 16.505444 18.022233 13.017437
688 22 1 15.601962 17.661868 13.249509
689 22 1 15.084130 17.949664 12.443890
690 22 1 15.672442 18.126445 11.654816
691 22 1 15.994123 0.362116 12.158083
692 22 1 15.455921 18.094277 12.037838
693 22 1 15.113740 18.200463 11.104223
694 22 1 15.840310 17.976037 10.454816
695 22 1 16.161548 0.147340 11.048673
696 22 1 15.778912 17.803039 11.204539
697 22 1 16.709401 17.465050 11.345798
698 22 1 16.244608 17.515636 10.461825
699 22 1 15.899384 16.577496 10.488550
700 22 1 15.321860 15.970387 9.942761
701 22 1 16.321077 16.005233 9.924014
702 22 1 15.595754 15.687085 10.534497
703 22 1 16.105701 15.795906 9.681202
704 22 1 15.485956 16.218175 9.019685
705 23 1 17.255288 9.467557 2.888874
706 23 1 17.939362 9.703170 3.579185
707 23 1 18.035945 8.750378 3.291333
708 23 1 17.638620 7.838155 3.391241
709 23 1 17.012709 7.917622 4.167076
710 23 1 17.726260 7.297895 3.840298
711 23 1 17.718666 7.909471 4.631447
712 23 1 17.766462 7.424542 5.504694
713 23 1 0.181699 7.396567 5.315769
714 23 1 0.598581 6.582937 5.721005
715 23 1 0.608166 6.311795 6.683497
716 23 1 18.440411 5.671072 6.458649
717 23 1 17.659701 5.853099 7.056443
718 23 1 17.061908 6.422306 7.620931
719 23 1 16.449238 5.742531 8.024096
720 23 1 16.847015 6.652181 8.143722
721 23 1 17.789672 6.685250 7.811601
722 23 1 17.922293 6.268456 6.912327
723 23 1 18.024710 5.610337 7.658243
724 23 1 17.785100 6.285161 6.960246
725 23 1 18.185928 7.033286 6.431430
726 23 1 18.152804 6.095280 6.086399
727 23 1 17.851666 7.048857 6.083790
728 23 1 0.100600 6.782027 5.569879
729 23 1 0.890617 7.283475 5.922615
730 23 1 1.020920 8.226827 5.617479
731 23 1 0.710001 7.636653 4.872479
732 23 1 18.381593 7.955044 4.559389
733 23 1 0.115225 8.814425 4.973480
734 23 1 1.031680 8.922799 4.588298
735 23 1 0.742444 9.756458 4.117815
736 23 1 1.738641 9.821344 4.059667
737 24 1 16.449064 15.783930 17.475437
738 24 1 15.906625 15.888454 16.641870
739 24 1 15.993969 14.956309 16.993263
740 24 1 15.542307 15.830192 17.173064
741 24 1 15.720441 14.897039 16.860825
742 24 1 15.802523 13.942339 16.574800
743 24 1 16.126033 14.363716 15.727580
744 24 1 15.202079 14.060292 15.960482
745 24 1 14.306733 13.687074 15.717453
746 24 1 14.253569 12.709746 15.512503
747 24 1 13.353486 12.276590 15.465317
748 24 1 13.352175 11.849986 14.560879
749 24 1 12.415536 11.526785 14.425792
750 24 1 13.093943 12.087657 14.900330
751 24 1 12.832926 12.996631 15.225348
752 24 1 12.421423 12.423896 15.934320
753 24 1 11.686574 12.017327 15.391458
754 24 1 10.799853 12.415674 15.626078
755 24 1 11.324628 12.207394 16.451445
756 24 1 11.475197 12.704636 17.305892
757 24 1 11.845561 12.112792 18.021819
758 24 1 11.942617 11.176540 17.684160
759 24 1 11.166753 11.550344 18.192397
760 24 1 11.026950 11.398157 0.604456
761 24 1 11.487433 12.285135 0.569441
762 24 1 11.068391 11.963745 1.418624
763 24 1 12.026440 12.134151 1.649066
764 24 1 11.433003 11.643694 1.010877
765 24 1 11.055381 12.504852 0.670572
766 24 1 11.471300 13.184777 1.274487
767 24 1 11.881731 13.757560 0.564933
768 24 1 11.414683 12.989154 1.002448
769 25 1 14.114444 10.786013 17.927567
770 25 1 14.163466 11.318828 0.206022
771 25 1 14.434616 11.619828 17.858114
772 25 1 15.201897 11.348457 18.439180
773 25 1 15.493735 11.197910 17.494635
774 25 1 15.255386 11.573516 18.390241
775 25 1 16.021660 10.939273 18.287474
776 25 1 15.894666 11.456444 0.567527
777 25 1 15.076294 12.021058 0.674669
778 25 1 14.725826 11.091235 0.786922
779 25 1 14.073744 11.398349 0.093762
780 25 1 14.783210 12.019136 0.427352
781 25 1 15.684581 11.861595 0.023977
782 25 1 15.368790 10.912890 0.039273
783 25 1 15.480166 11.166212 17.644679
784 25 1 14.557276 10.922216 17.942571
785 25 1 13.782981 10.797171 18.562918
786 25 1 13.209819 10.867563 0.812976
787 25 1 13.310016 9.927257 1.138224
788 25 1 13.774532 9.089158 1.424257
789 25 1 13.750114 9.989355 0.989458
790 25 1 13.589030 10.031237 0.003407
791 25 1 14.006943 9.236828 0.444160
792 25 1 13.697542 8.388194 0.873219
793 25 1 13.131684 8.043397 1.622164
794 25 1 12.826421 8.972071 1.411501
795 25 1 13.040395 9.518298 0.601654
796 25 1 13.642777 8.754971 0.368269
797 25 1 12.688480 8.898783 0.106284
798 25 1 13.531647 9.406105 0.284312
799 25 1 12.701062 9.952810 0.390343
800 25 1 12.657662 10.794398 18.418325